

 Parallel Execution: Process Information
 ==============================================================================
 Rank   Node Name                              NodeID   MyNodeRank  NodeMaster
    0   p-sc-2411                                 0          0          0
    1   p-sc-2411                                 0          1         -1
    2   p-sc-2411                                 0          2         -1
    3   p-sc-2411                                 0          3         -1
    4   p-sc-2411                                 0          4         -1
    5   p-sc-2411                                 0          5         -1
    6   p-sc-2411                                 0          6         -1
    7   p-sc-2411                                 0          7         -1
    8   p-sc-2411                                 0          8         -1
    9   p-sc-2411                                 0          9         -1
   10   p-sc-2411                                 0         10         -1
   11   p-sc-2411                                 0         11         -1
   12   p-sc-2411                                 1          0          1
   13   p-sc-2411                                 1          1         -1
   14   p-sc-2411                                 1          2         -1
   15   p-sc-2411                                 1          3         -1
   16   p-sc-2411                                 1          4         -1
   17   p-sc-2411                                 1          5         -1
   18   p-sc-2411                                 1          6         -1
   19   p-sc-2411                                 1          7         -1
 ==============================================================================


May use up to 61446MB of RAM as shared memory on node 0
May use up to 61500MB of RAM as shared memory on node 1

 *******************************************************************************
 *                                                                             *
 *  --------------------------------                                           *
 *   Amsterdam Modeling Suite (AMS)              2024.201                      *
 *  --------------------------------                                           *
 *                                               r                             *
 *                                                                             *
 *                                                                             *
 *                              =================                              *
 *                              |               |                              *
 *                              |     A M S     |                              *
 *                              |               |                              *
 *                              =================                              *
 *                                                                             *
 *                                                                             *
 *   Online information and documentation:  https://www.scm.com/support/       *
 *   E-mail:  support@scm.com   info@scm.com                                   *
 *                                                                             *
 *   Scientific publications using AMS results must be properly referenced     *
 *   See the User Manuals (or the web site) for recommended citations          *
 *   The terms and conditions of the End User License Agreement apply to       *
 *   the use of AMS, https://www.scm.com/license-terms/                        *
 *                                                                             *
 **********************  x86_64_linux_intel / intelmpi  ************************
 
 Licensed to: Prof. Lasse Jensen / Penn State University / University Park / PA  / USA 2024-04-18 12:23:34
 SCM User ID: u8493
  
 AMS 2024.201  RunTime: Jan23-2025 18:57:01  ShM Nodes: 2  Procs: 20

 AMS jobname: ams
 AMS jobid  : 1923232114

 Start   directory: /scratch/ijc5167/scratch_adf/bcarotene_dftgxtm/
 Results directory: /scratch/ijc5167/scratch_adf/bcarotene_dftgxtm/ams.results/
 Scratch directory: /tmp/amstmp_ams_kid0.1923232114/


 Communication costs MPI_COMM_WORLD:      1.792 usec per message,   0.0074 usec per 8-byte item
 Communication costs for intra-node:      0.946 usec per message,   0.0086 usec per 8-byte item

 RNG seed: -342334126 -174889724 2038674850 432234762 -525416722 -1792237031 280309529 -180527579



                     *************************************************************************
                     *  ADF 2024.201  RunTime: Jan23-2025 18:57:01  ShM Nodes: 2  Procs: 20  *
                     *************************************************************************
  

       ***************************
       *  GEOMETRY OPTIMIZATION  *
       ***************************

Optimization Method                    Quasi Newton
Optimization Coordinates               Delocalized Coordinates
Optimize lattice                       F
 
 ------------------------------------------------------
 Convergence criteria (Hartree,Angstrom)
 ------------------------------------------------------
 Maximum gradient               0.001000000000
 Maximum rms gradient           0.000666666667
 Maximum step allowed           0.010000000000
 Maximum rms step allowed       0.006666666667
 Maximum energy change allowe   0.000960000000
 Maximum stress energy allowe   0.000500000000
 
Initial model Hessian                  Automatic Hessian
 
------------------------------------
Quasi-Newton Optimizer Parameters
------------------------------------
Hessian Update Method                  BFGS
Maximum number of steps                  576
First GDIIS cycle                          0
Maximum GDIIS vectors                      0
Trust radius (bohr)                        0.200000
Trust radius varies                        T
Constraints converged at all steps         T
Use projector                              T
 
 Rigid motions settings for: old optimizer
 Atomic rotations (x,y,z):     T T T
 Atomic translations (x,y,z):  T T T
 Tolerance:                   1.000000000000000E-006
 
--------
Geometry
--------
Formula: C40H56
Atoms
  Index Symbol   x (angstrom)   y (angstrom)   z (angstrom)
      1      C     4.27850000     7.33420000     5.67960000
      2      C     5.55660000     7.43000000     5.24020000
      3      C     3.19720000     8.30070000     5.40560000
      4      C     6.63620000     6.49670000     5.51870000
      5      C     2.37540000     8.73450000     6.64380000
      6      C     2.94560000     8.78120000     4.16120000
      7      C     7.87890000     6.77540000     5.01750000
      8      C     6.33100000     5.27300000     6.34800000
      9      C     3.26980000     9.58690000     7.57550000
     10      C     1.88140000     7.50320000     7.44050000
     11      C     1.12190000     9.54030000     6.22960000
     12      C     3.62020000     8.29080000     2.90070000
     13      C     1.90570000     9.84930000     3.88670000
     14      C     9.08840000     6.01720000     5.16490000
     15      C     1.41370000    10.56970000     5.14070000
     16      C    10.27720000     6.40140000     4.61570000
     17      C    11.53740000     5.70610000     4.71600000
     18      C    12.63510000     6.25190000     4.09590000
     19      C    11.58740000     4.41470000     5.49790000
     20      C    13.97300000     5.75120000     4.06070000
     21      C    14.99850000     6.37920000     3.40730000
     22      C    16.33720000     5.88060000     3.37220000
     23      C    17.43290000     6.42770000     2.74990000
     24      C    18.69610000     5.73680000     2.85060000
     25      C    17.37840000     7.71690000     1.96480000
     26      C    19.88280000     6.12640000     2.30190000
     27      C    21.10080000     5.38030000     2.45510000
     28      C    22.32800000     5.67140000     1.93170000
     29      C    23.50330000     4.84990000     2.22670000
     30      C    22.58320000     6.84140000     1.00800000
     31      C    23.70730000     4.09680000     3.33250000
     32      C    24.88850000     3.26790000     3.63220000
     33      C    25.42150000     3.41730000     5.07840000
     34      C    25.44330000     2.41110000     2.73620000
     35      C    25.48990000     4.90880000     5.47910000
     36      C    24.47440000     2.68610000     6.06150000
     37      C    26.85040000     2.84080000     5.20100000
     38      C    24.91630000     2.17320000     1.33960000
     39      C    26.67290000     1.57870000     3.05140000
     40      C    26.99630000     1.47180000     4.54240000
     41      H     4.02900000     6.50540000     6.33880000
     42      H     5.82960000     8.29310000     4.63430000
     43      H     7.97510000     7.68990000     4.43030000
     44      H     7.19930000     4.62480000     6.47740000
     45      H     5.97500000     5.55530000     7.34740000
     46      H     5.53510000     4.67630000     5.88480000
     47      H     3.59020000    10.51470000     7.08950000
     48      H     4.17370000     9.03760000     7.86010000
     49      H     2.72930000     9.85200000     8.49330000
     50      H     1.35310000     6.79420000     6.79200000
     51      H     2.69720000     6.97030000     7.93930000
     52      H     1.18300000     7.82680000     8.22200000
     53      H     0.35660000     8.84370000     5.85680000
     54      H     0.69820000    10.01950000     7.12210000
     55      H     2.87020000     8.15930000     2.10790000
     56      H     4.14650000     7.34480000     3.03870000
     57      H     4.34340000     9.02500000     2.51700000
     58      H     2.32340000    10.57080000     3.16850000
     59      H     1.05330000     9.38610000     3.36190000
     60      H     9.05200000     5.09780000     5.74290000
     61      H     2.17730000    11.27860000     5.48600000
     62      H     0.51740000    11.16050000     4.91490000
     63      H    10.29170000     7.32820000     4.04060000
     64      H    12.47540000     7.18830000     3.55930000
     65      H    10.89190000     3.67670000     5.07840000
     66      H    12.58150000     3.96500000     5.50440000
     67      H    11.28920000     4.57720000     6.54150000
     68      H    14.19810000     4.82110000     4.57960000
     69      H    14.77240000     7.30910000     2.88840000
     70      H    16.49930000     4.94580000     3.91080000
     71      H    18.68610000     4.81210000     3.42920000
     72      H    18.06620000     8.46070000     2.38670000
     73      H    17.68440000     7.55390000     0.92350000
     74      H    16.38130000     8.15960000     1.95080000
     75      H    19.91630000     7.04800000     1.72720000
     76      H    21.01750000     4.47190000     3.05140000
     77      H    24.30670000     4.90550000     1.49220000
     78      H    23.17580000     7.61950000     1.50870000
     79      H    23.16640000     6.51810000     0.13600000
     80      H    21.66650000     7.30490000     0.63740000
     81      H    22.96150000     4.16040000     4.12520000
     82      H    25.94000000     5.00870000     6.47490000
     83      H    24.50100000     5.37700000     5.51310000
     84      H    26.10380000     5.47810000     4.77180000
     85      H    24.42580000     1.61230000     5.85380000
     86      H    24.82060000     2.81940000     7.09430000
     87      H    23.45270000     3.07810000     6.00680000
     88      H    27.55490000     3.53810000     4.72480000
     89      H    27.12670000     2.79590000     6.26300000
     90      H    23.91090000     2.56940000     1.18860000
     91      H    24.90160000     1.09670000     1.12260000
     92      H    25.57150000     2.62840000     0.58210000
     93      H    27.53290000     2.01550000     2.51590000
     94      H    26.54710000     0.57660000     2.61810000
     95      H    28.01200000     1.08180000     4.68310000
     96      H    26.31820000     0.75070000     5.01640000
 
Total System Charge             0.00000
 
 
----------------
ADF Engine Input
----------------
 
 SYMMETRY NoSym
 BASIS
 type TZP
 core Large
 CreateOutput Yes
 End
 XC
 GGA Becke88 Perdew86
 END
 numericalquality Normal
 

 Title: *** (NO TITLE) ***

 Using automatic Hessian for delocalized coordinates.


JSONified input:
++++++++++++++++
{
  "Create": "C m=12.0000000000000 /storage/group/lxj18/default/ams2024.201/atomicdata/ADF/ZORA/TZP/C.1s",
  "CorePotentials": {
    "_1": [],
    "_h": "/tmp/amstmp_ams_kid0.1923232114/t12.rel"
  },
  "xc": {
    "gga": "Becke88 Perdew86"
  }
}


JSONified input traversal:
++++++++++++++++++++++++++
2 3 , path = 
7 0 Create, path = Create
2 2 CorePotentials, path = CorePotentials
3 0 _1, path = CorePotentials%_1
7 0 _h, path = CorePotentials%_h
2 1 xc, path = xc
7 0 gga, path = xc%gga
 dirac file name: /storage/group/lxj18/default/ams2024.201/atomicdata/Dirac/C.1s



                     **************************************************************************
                     *  DIRAC 2024.201  RunTime: Jan23-2025 18:57:02  ShM Nodes: 1  Procs: 1  *
                     **************************************************************************
  
1
 CARBON ATOM 1s CORE RELATIVISTIC, Point Nuc, A and c from li
 N J RN H ZN XION ANUC CLIGHT
 5000    4100.00000000197.36710137  6.00000000  0.00000000   12.000000  0.1370360E+03
  PH   PHI     EPS        DEL        DELRVR
  0.30  0.30     2500.00  0.00001000  0.00001000
 IDIRC  NC1  NDEBU NPRIN  IPUN IRCOR IWCOR
   1   300     0     0     0     0     1
   XALPHA      XLATTER      RNUC
  0.70000000  0.00000000  0.00000000 Point Charge
   XN   XL   XJ      XE          XZ      XDELL
  1.0  0.0  0.5      -5.000       2.000     0.00000
  2.0  0.0  0.5      -1.000       2.000     0.00000
  2.0  1.0  0.5      -1.000       2.000     0.00000
  2.0  1.0  1.5      -1.000       0.000     0.00000
 R(1)=  0.1000000E-08 D=  0.1005080E+01 RNUC=  0.0000000E+00
 converged at cycle   26  DENSITY AVERAGING    0.3000
  MAXIMUM ERROR IN R.V(R) IS   0.55010513E-05
 Q,EY,EV,EZ,ESUM,ETOT,RHO  0.600000E+01 -0.610129E+01 -0.585189E+02 -0.876464E+02 -0.211985E+02 -0.372876E+02  0.164808E-14


 DIRAC CALCULATION
1                    CARBON ATOM 1s CORE RELATIVISTIC, Point Nuc, A and c from libtc


 EXCHANGE COEFFICIENT=  0.7000000           TAIL CORRECTION=  0.           NUCLEAR RADIUS=  0.000E+00
0                       ORBITAL    N    L    J     ELECTRONS     EIGENVALUE                DELTA OF EIGENV.

                          1S1/2  1.0  0.0  0.5     2.000       -0.9959611E+01                 0.1355092E-04
                          2S1/2  2.0  0.0  0.5     2.000       -0.4708542E+00                 0.1106918E-05
                          2P1/2  2.0  1.0  0.5     2.000       -0.1687896E+00                 0.8770186E-06
                          2P3/2  2.0  1.0  1.5     0.000       -0.1684646E+00                 0.8770830E-06


                                        NUCLEAR CHARGE=    6.000000
                            INTEGRAL OF CHARGE DENSITY=    6.000000
                           SUM OF THE ORBITAL ENERGIES=    -21.1985
                                          TOTAL ENERGY=    -37.2876
                                        KINETIC ENERGY=     37.3204
                             NUCLEAR ATTRACTION ENERGY=    -87.6464
                             ELECTRON REPULSION ENERGY=     17.6144
                                       EXCHANGE ENERGY=     -4.5760

 Carbon (TZP, 1s frozen)



 ===========================
 A T T A C H E D   F I L E S
 ===========================
  
 CREATE - Data File:    /storage/group/lxj18/default/ams2024.201/atomicdata/ADF/ZORA/TZP/C.1s
                        Carbon (TZP, 1s frozen)
 Core Potentials:
         file : /tmp/amstmp_ams_kid0.1923232114/t12.rel



 ===============================
 M O D E L   P A R A M E T E R S
 ===============================
  
 DENSITY FUNCTIONAL POTENTIAL (scf)
    LDA:                               VWN                                      
    Gradient Corrections:              Becke88 Perdew86                        == Not Default ==

 SPIN  (restricted / unrestr.)
    Molecule:                          Restricted                               

 OTHER ASPECTS
    Relativistic Corrections:          scalar (ZORA,MAPA)                       

    Nuclear Charge Density Model:      Point Charge Nuclei                      
    Core Treatment:                    Frozen Orbital(s)                        

    Hyperfine or Zeeman Interaction:   ---                                      



 =====================================
 S Y M M E T R Y ,   E L E C T R O N S
 =====================================
  
 Symmetry: ATOM

 Irreducible Representations, including subspecies
 -------------------------------------------------
 S
 P:x  P:y  P:z
 D:z2  D:x2-y2  D:xy  D:xz  D:yz
 F:z3  F:z  F:xyz  F:z2x  F:z2y  F:x  F:y


 Configuration of Valence Electrons
 ==================================

          Occupation Numbers
          -------------------------------------------------
 S        2
 P        2
 D        0
 F        0
          -------------------------------------------------

 Total:   4

 Net Charge: 0 (Nuclei minus Electrons)

 Preset values for MO occupations will be applied through SCF cycle no. 1000000
 Thereafter, the program will assign electrons to MOs that are spatially
 similar to the occupied MOs in a "reference" cycle ("KeepOrbitals").
 The reference cycle is always the PREVIOUS cycle: it will evolve with
 the SCF procedure.



 ================================
 (Slater-type)  F U N C T I O N S  ***  (Basis and Fit)  ***
 ================================
  

 Atom Type    1  (C)
 ==============

 Valence Basis Sets:   8
 -----------------------
   1 S    5.400000
   2 S    1.280000
   2 S    2.100000
   2 S    4.600000
   2 P    0.820000
   2 P    1.480000
   2 P    2.940000
   3 D    2.200000

 Frozen Core Shells
 ------------------
    S:  1


 BAS: List of all Elementary Cartesian Basis Functions
 =====================================================

 The numbering in the list below (to the right of the function characteristics) is referred
 to in print-outs of MO eigenvectors and Mulliken populations in the BAS representation
 (as contrasted to the SFO representation).

 Notes:
 1. The functions are characterized by a polynomial prefactor (powers of x,y,z and r) and
    an exponential decay factor alpha.
 2. Since the basis sets are specific for an atom TYPE, the individual functions occur on
    all atoms of that type.
 3. The word 'Core' in the left margin signals that it is a Core Function (CF) : not a
    degree of freedom in the valence set, but only used to ensure orthogonalization of
    the other valence basis functions on the frozen Core Orbitals.


 (power of) X  Y  Z  R     Alpha  on Atom
            ==========     =====     ==========

 C                                    1
                                  ---------------------------------------------------------------------------
    Core    0  0  0  0     5.400      1
            0  0  0  1     1.280      2
            0  0  0  1     2.100      3
            0  0  0  1     4.600      4
            1  0  0  0     0.820      5
            0  1  0  0     0.820      6
            0  0  1  0     0.820      7
            1  0  0  0     1.480      8
            0  1  0  0     1.480      9
            0  0  1  0     1.480     10
            1  0  0  0     2.940     11
            0  1  0  0     2.940     12
            0  0  1  0     2.940     13
            2  0  0  0     2.200     14
            1  1  0  0     2.200     15
            1  0  1  0     2.200     16
            0  2  0  0     2.200     17
            0  1  1  0     2.200     18
            0  0  2  0     2.200     19

 Total number of charge fitting functions (nprimf)        82
 Total number of Cartesian basis functions (naos)         19
 Total number of Cartesian core functions  (ncos)          1



 BAS: List of all Elementary Cartesian Basis Functions
 =====================================================

 The numbering in the list below (to the right of the function characteristics) is referred
 to in print-outs of MO eigenvectors and Mulliken populations in the BAS representation
 (as contrasted to the SFO representation).

 Notes:
 1. The functions are characterized by a polynomial prefactor (powers of x,y,z and r) and
    an exponential decay factor alpha.
 2. Since the basis sets are specific for an atom TYPE, the individual functions occur on
    all atoms of that type.
 3. The word 'Core' in the left margin signals that it is a Core Function (CF) : not a
    degree of freedom in the valence set, but only used to ensure orthogonalization of
    the other valence basis functions on the frozen Core Orbitals.


 (power of) X  Y  Z  R     Alpha  on Atom
            ==========     =====     ==========

 C                                    1
                                  ---------------------------------------------------------------------------
    Core    0  0  0  0     5.400      1
            0  0  0  1     1.280      2
            0  0  0  1     2.100      3
            0  0  0  1     4.600      4
            1  0  0  0     0.820      5
            0  1  0  0     0.820      6
            0  0  1  0     0.820      7
            1  0  0  0     1.480      8
            0  1  0  0     1.480      9
            0  0  1  0     1.480     10
            1  0  0  0     2.940     11
            0  1  0  0     2.940     12
            0  0  1  0     2.940     13
            2  0  0  0     2.200     14
            1  1  0  0     2.200     15
            1  0  1  0     2.200     16
            0  2  0  0     2.200     17
            0  1  1  0     2.200     18
            0  0  2  0     2.200     19
1
 ***************************************************************************************************



                                              ***********************
                                              *  T E C H N I C A L  *
                                              ***********************
  



 =============================================================
 P A R A L L E L I Z A T I O N  and  V E C T O R I Z A T I O N
 =============================================================
  
 Nr of parallel processes:                                1
 Maximum vector length in NumInt loops:                 128



 =====================
 S C F   U P D A T E S
 =====================
  
 Max. nr. of cycles:                               300
 Convergence criterion:                              0.0000000100
   secondary criterion:                              0.0000000100

 Mix parameter (when DIIS does not apply):           0.2000000000
 Special mix parameter for the first cycle:          1.0000000000
 Mixed ADIIS+SDIIS will be used                  
    Max number of expansion vectors:                10
    Pure ADIIS when Max([F,P]) is above              0.1000000000
    Pure SDIIS when Max([F,P]) is below              0.0010000000
 Automatic ElectronSmearing (in case of problematic SCF convergence) disabled



 =================
 P R E C I S I O N  ***  (General: NumInt, NeglectFunctionTails, ...)  ***
 =================
  

 NumInt:           Target precision:                12.0000000000
 -------           Initial precision:               10.0000000000
                   Min. precision (optimization):   10.0000000000

 Neglect Functions:          Basis functions:        0.1000000000E-13
 ------------------          Fit functions:          0.1000000000E-13



 ===========================
 L I N E A R   S C A L I N G
 ===========================
  

 Cut-off radii density fit:                        0.1000000000E-97
 Overlap cut-off criterion AO matrix elements:     0.1000000000E-97
 Cut-offs for Coulomb potential and fitted density:0.1000000000E-97
 Cut-off criterion for Coulomb multipole terms:    0.1000000000E-97
 Progressive Convergence parameter:                 0.000000000    
1
 ***************************************************************************************************



                                            ***************************
                                            *  C O M P U T A T I O N  *
                                            ***************************
  

 Number of elements of the density matrix on this node (used, total):       190       190



 ===========================================
 Numerical Integration : Fuzzy Cells (Becke)
 ===========================================
  
 Becke grid quality: VERYGOOD       
  
 Lebedev angular grid order:             min:  13 max:  41
 Nr. of radial points:                   min:  68 max:  68

 Total nr. of points:         68
 Nr. of blocks:                1
 Block length:                68
 Nr. of dummy points:          0


 Test of Precision of the Numerical Integration Grid
 ===================================================

 Integral of the Total Core Density:                   1.99999999948618
 Relative Error:                                      -2.569E-10



 ========================
 Density Fitting (zlmFit)
 ========================
  
 ZlmFit Fit Quality: VERYGOOD       
  
 Max L-expansion:                        min:   0 max:   0
 Nr. of radial interpolation points:     min: 160 max: 160



 =====
 S C F  ***  ScaSCF  ***
 =====
  

 CYCLE    1
 SCF Error: norm([F,P])=      0.000000000000, max([F,P])=      0.000000000000
 orbitals (Q,E):
 ---------------
 S :1...3            ( 2.00    -2.5701)  ( 0.00    -1.0266)  ( 0.00     7.2746)
 P :1...3            ( 2.00    -2.3103)  ( 0.00    -0.9317)  ( 0.00    -0.0102)
 D :1...1            ( 0.00    -0.6477)

 CYCLE    2
 SCF Error: norm([F,P])=      1.478901828970, max([F,P])=      1.164978076574
 orbitals (Q,E):
 ---------------
 S :1...2            ( 2.00    -0.1832)  ( 0.00     0.7379)
 P :1...2            ( 2.00     0.0532)  ( 0.00     0.3970)
 D :1...1            ( 0.00     1.5652)

 CYCLE    3
  SDIIS (wt  0.000):  0.3289  0.6711
 A-DIIS (wt  1.000):  0.3239  0.6761
  DIIS coefficients:  0.3239  0.6761
 SCF Error: norm([F,P])=      0.794561063362, max([F,P])=      0.663235706882
 orbitals (Q,E):
 ---------------
 S :1...2            ( 2.00    -0.6484)  ( 0.00     0.3381)
 P :1...2            ( 2.00    -0.3305)  ( 0.00     0.1125)
 D :1...1            ( 0.00     1.0979)

 CYCLE    4
  SDIIS (wt  0.000):  0.1953  0.8047
 A-DIIS (wt  1.000):  0.0000  1.0000
  DIIS coefficients:  0.0000  1.0000
 SCF Error: norm([F,P])=      0.197780383988, max([F,P])=      0.155597449848
 orbitals (Q,E):
 ---------------
 S :1...2            ( 2.00    -0.4340)  ( 0.00     0.4894)
 P :1...2            ( 2.00    -0.1287)  ( 0.00     0.2144)
 D :1...1            ( 0.00     1.3056)

 CYCLE    5
  SDIIS (wt  0.000): -0.0231  0.4237  0.5993
 A-DIIS (wt  1.000):  0.0000  0.3950  0.6050
  DIIS coefficients:  0.0000  0.3950  0.6050
 SCF Error: norm([F,P])=      0.169504169244, max([F,P])=      0.138193687970
 orbitals (Q,E):
 ---------------
 S :1...2            ( 2.00    -0.5215)  ( 0.00     0.4214)
 P :1...2            ( 2.00    -0.2088)  ( 0.00     0.1682)
 D :1...1            ( 0.00     1.2216)

 CYCLE    6
  SDIIS (wt  0.844): -0.0012 -0.0338  0.0814  0.9536
 A-DIIS (wt  0.156):  0.0000  0.0000  0.0000  1.0000
  DIIS coefficients: -0.0010 -0.0285  0.0686  0.9609
 SCF Error: norm([F,P])=      0.020476648691, max([F,P])=      0.016490712604
 orbitals (Q,E):
 ---------------
 S :1...2            ( 2.00    -0.5100)  ( 0.00     0.4293)
 P :1...2            ( 2.00    -0.1982)  ( 0.00     0.1732)
 D :1...1            ( 0.00     1.2327)

 CYCLE    7
  SDIIS (wt  0.987):  0.0002 -0.0100  0.0123  0.2995  0.6980
 A-DIIS (wt  0.013):  0.0000  0.0000  0.0000  0.0000  1.0000
  DIIS coefficients:  0.0002 -0.0099  0.0121  0.2956  0.7019
 SCF Error: norm([F,P])=      0.002773004326, max([F,P])=      0.002270399920
 orbitals (Q,E):
 ---------------
 S :1...2            ( 2.00    -0.5114)  ( 0.00     0.4283)
 P :1...2            ( 2.00    -0.1994)  ( 0.00     0.1726)
 D :1...1            ( 0.00     1.2314)

 CYCLE    8
  SDIIS (wt  1.000):  0.0000  0.0008 -0.0011 -0.0198 -0.0248  1.0450
  DIIS coefficients:  0.0000  0.0008 -0.0011 -0.0198 -0.0248  1.0450
 SCF Error: norm([F,P])=      0.000006938618, max([F,P])=      0.000004493800
 orbitals (Q,E):
 ---------------
 S :1...2            ( 2.00    -0.5114)  ( 0.00     0.4283)
 P :1...2            ( 2.00    -0.1994)  ( 0.00     0.1726)
 D :1...1            ( 0.00     1.2314)

 CYCLE    9
  SDIIS (wt  1.000): -0.0000  0.0000  0.0001 -0.0003  0.0172  0.9829
  DIIS coefficients: -0.0000  0.0000  0.0001 -0.0003  0.0172  0.9829
 SCF Error: norm([F,P])=      0.000000581664, max([F,P])=      0.000000472406
 orbitals (Q,E):
 ---------------
 S :1...2            ( 2.00    -0.5114)  ( 0.00     0.4283)
 P :1...2            ( 2.00    -0.1994)  ( 0.00     0.1726)
 D :1...1            ( 0.00     1.2314)

 CYCLE   10
  SDIIS (wt  1.000):  0.0000  0.0000 -0.0000 -0.0000  0.0001  0.0102  0.9897
  DIIS coefficients:  0.0000  0.0000 -0.0000 -0.0000  0.0001  0.0102  0.9897
 SCF Error: norm([F,P])=      0.000000008804, max([F,P])=      0.000000007022
 orbitals (Q,E):
 ---------------
 S :1...2            ( 2.00    -0.5114)  ( 0.00     0.4283)
 P :1...2            ( 2.00    -0.1994)  ( 0.00     0.1726)
 D :1...1            ( 0.00     1.2314)

 SCF CONVERGED

 CYCLE   11
1
 ***************************************************************************************************



                                                *******************
                                                *  R E S U L T S  *
                                                *******************
  
 *** Using FIT density in Focky
  SDIIS (wt  1.000): -0.0000  0.0001  0.9999
  DIIS coefficients: -0.0000  0.0001  0.9999
 SCF Error: norm([F,P])=      0.000000000001, max([F,P])=      0.000000000001

 Scaled ZORA Orbital Energies, per Irrep and Spin:
 =================================================
                        Occup              E (au)              E (eV)       Diff (eV) with prev. cycle
                        -----      --------------------        ------       --------------------------
 S
               1        2.000     -0.51136323060916E+00       -13.915              -6.32E-12
               2        0.000      0.42826814635874E+00        11.654
               3        0.000      0.99274161206220E+01       270.139
 P
               1        2.000     -0.19940512407269E+00        -5.426              -5.22E-12
               2        0.000      0.17255292001421E+00         4.695
               3        0.000      0.20223284203113E+01        55.030
 D
               1        0.000      0.12313950909451E+01        33.508


 Partially Occupied:
               1 P                -0.19940512407269E+00
  
 HOMO :        1 S                -0.51136323060916E+00
 LUMO :        2 P                 0.17255292001421E+00
  


 Orbital Energies, all Irreps
 ========================================

 Irrep        no.  (spin)   Occup              E (au)                E (eV)
 ---------------------------------------------------------------------------
 S             1             2.00       -0.51136323060916E+00       -13.9149
 P             1             2.00       -0.19940512407269E+00        -5.4261
 P             2             0.00        0.17255292001421E+00         4.6954
 S             2             0.00        0.42826814635874E+00        11.6538
 D             1             0.00        0.12313950909451E+01        33.5080
 P             3             0.00        0.20223284203113E+01        55.0304
 S             3             0.00        0.99274161206220E+01       270.1387


 Scaled ZORA Orbital Energies of the Core Orbitals:
 ==================================================

 (Note that the atoms are grouped by atomtype, see the labels, and may hence NOT be in input order)

 AtomType  Orbital  Atom                   E (au)                        E (eV)
 --------  -------  ----           --------------------        ----------------
 C           1S        1          -0.10075096065267E+02                -274.157



 =======================================
 M U L L I K E N   P O P U L A T I O N S
 =======================================
  
 The survey below gives for each atom:
 a) the total charge (Z minus electrons)
 b) the net spin polarization (nr of electrons spin-A minus spin-B)
 c) for each spin the atomic electron valence density (integrated) per L-value.

 Atom              Charge    Spin density          S         P         D         F
 ----              ------    ------------       ------    ------    ------    ------
 1 C               0.0000                       2.0000    2.0000    0.0000    0.0000

 Populations of individual BAS functions
 ----------------------------------------
 1 C            0.0007  0.9651  1.0728 -0.0385  0.1719  0.1719  0.1719  0.3912  0.3912  0.3912
                0.1036  0.1036  0.1036  0.0000  0.0000  0.0000  0.0000  0.0000  0.0000

 Gross Charges per Atom (Z minus electrons)
 ==========================================
             0.0000
 Net Total:  0.00000000



 =======================================================================
 Electrostatic potential at the Nuclei due to electrons and other nuclei
 =======================================================================
  
         Atom                  Potential
         ----                  ---------
     1)   C                  14.62256413


JSONified input:
++++++++++++++++
{
  "Create": "H m=1.00782500000000 /storage/group/lxj18/default/ams2024.201/atomicdata/ADF/ZORA/TZP/H",
  "CorePotentials": {
    "_1": [],
    "_h": "/tmp/amstmp_ams_kid0.1923232114/t12.rel"
  },
  "xc": {
    "gga": "Becke88 Perdew86"
  }
}


JSONified input traversal:
++++++++++++++++++++++++++
2 3 , path = 
7 0 Create, path = Create
2 2 CorePotentials, path = CorePotentials
3 0 _1, path = CorePotentials%_1
7 0 _h, path = CorePotentials%_h
2 1 xc, path = xc
7 0 gga, path = xc%gga
 dirac file name: /storage/group/lxj18/default/ams2024.201/atomicdata/Dirac/H



                     **************************************************************************
                     *  DIRAC 2024.201  RunTime: Jan23-2025 18:57:03  ShM Nodes: 1  Procs: 1  *
                     **************************************************************************
  
1
 HYDROGEN ATOM RELATIVISTIC, Point Nuc, A and c from libtc   
 N J RN H ZN XION ANUC CLIGHT
 5000    1100.00000000197.36710137  1.00000000  0.00000000    1.007825  0.1370360E+03
  PH   PHI     EPS        DEL        DELRVR
  0.30  0.30     2500.00  0.00001000  0.00001000
 IDIRC  NC1  NDEBU NPRIN  IPUN IRCOR IWCOR
   1   300     0     0     0     0     0
   XALPHA      XLATTER      RNUC
  0.70000000  0.00000000  0.00000000 Point Charge
   XN   XL   XJ      XE          XZ      XDELL
  1.0  0.0  0.5      -1.000       1.000     0.00000
 R(1)=  0.1000000E-08 D=  0.1005080E+01 RNUC=  0.0000000E+00
 converged at cycle   32  DENSITY AVERAGING    0.2400
  MAXIMUM ERROR IN R.V(R) IS   0.79874357E-05
 Q,EY,EV,EZ,ESUM,ETOT,RHO  0.100000E+01 -0.266614E+00 -0.619969E+00 -0.910779E+00 -0.203940E+00 -0.415998E+00  0.337036E-17


 DIRAC CALCULATION
1                    HYDROGEN ATOM RELATIVISTIC, Point Nuc, A and c from libtc


 EXCHANGE COEFFICIENT=  0.7000000           TAIL CORRECTION=  0.           NUCLEAR RADIUS=  0.000E+00
0                       ORBITAL    N    L    J     ELECTRONS     EIGENVALUE                DELTA OF EIGENV.

                          1S1/2  1.0  0.0  0.5     1.000       -0.2039397E+00                 0.2720093E-06


                                        NUCLEAR CHARGE=    1.000000
                            INTEGRAL OF CHARGE DENSITY=    1.000000
                           SUM OF THE ORBITAL ENERGIES=     -0.2039
                                          TOTAL ENERGY=     -0.4160
                                        KINETIC ENERGY=      0.4160
                             NUCLEAR ATTRACTION ENERGY=     -0.9108
                             ELECTRON REPULSION ENERGY=      0.2787
                                       EXCHANGE ENERGY=     -0.2000

 Hydrogen (TZP)



 ===========================
 A T T A C H E D   F I L E S
 ===========================
  
 CREATE - Data File:    /storage/group/lxj18/default/ams2024.201/atomicdata/ADF/ZORA/TZP/H
                        Hydrogen (TZP)
 Core Potentials:
         file : /tmp/amstmp_ams_kid0.1923232114/t12.rel



 ===============================
 M O D E L   P A R A M E T E R S
 ===============================
  
 DENSITY FUNCTIONAL POTENTIAL (scf)
    LDA:                               VWN                                      
    Gradient Corrections:              Becke88 Perdew86                        == Not Default ==

 SPIN  (restricted / unrestr.)
    Molecule:                          Restricted                               

 OTHER ASPECTS
    Relativistic Corrections:          scalar (ZORA,MAPA)                       

    Nuclear Charge Density Model:      Point Charge Nuclei                      
    Core Treatment:                    Frozen Orbital(s)                        

    Hyperfine or Zeeman Interaction:   ---                                      



 =====================================
 S Y M M E T R Y ,   E L E C T R O N S
 =====================================
  
 Symmetry: ATOM

 Irreducible Representations, including subspecies
 -------------------------------------------------
 S
 P:x  P:y  P:z
 D:z2  D:x2-y2  D:xy  D:xz  D:yz
 F:z3  F:z  F:xyz  F:z2x  F:z2y  F:x  F:y


 Configuration of Valence Electrons
 ==================================

          Occupation Numbers
          -------------------------------------------------
 S        1
 P        0
 D        0
 F        0
          -------------------------------------------------

 Total:   1

 Net Charge: 0 (Nuclei minus Electrons)

 Preset values for MO occupations will be applied through SCF cycle no. 1000000
 Thereafter, the program will assign electrons to MOs that are spatially
 similar to the occupied MOs in a "reference" cycle ("KeepOrbitals").
 The reference cycle is always the PREVIOUS cycle: it will evolve with
 the SCF procedure.



 ================================
 (Slater-type)  F U N C T I O N S  ***  (Basis and Fit)  ***
 ================================
  

 Atom Type    1  (H)
 ==============

 Valence Basis Sets:   4
 -----------------------
   1 S    0.690000
   1 S    0.920000
   1 S    1.580000
   2 P    1.250000


 BAS: List of all Elementary Cartesian Basis Functions
 =====================================================

 The numbering in the list below (to the right of the function characteristics) is referred
 to in print-outs of MO eigenvectors and Mulliken populations in the BAS representation
 (as contrasted to the SFO representation).

 Notes:
 1. The functions are characterized by a polynomial prefactor (powers of x,y,z and r) and
    an exponential decay factor alpha.
 2. Since the basis sets are specific for an atom TYPE, the individual functions occur on
    all atoms of that type.
 3. The word 'Core' in the left margin signals that it is a Core Function (CF) : not a
    degree of freedom in the valence set, but only used to ensure orthogonalization of
    the other valence basis functions on the frozen Core Orbitals.


 (power of) X  Y  Z  R     Alpha  on Atom
            ==========     =====     ==========

 H                                    1
                                  ---------------------------------------------------------------------------
            0  0  0  0     0.690      1
            0  0  0  0     0.920      2
            0  0  0  0     1.580      3
            1  0  0  0     1.250      4
            0  1  0  0     1.250      5
            0  0  1  0     1.250      6

 Total number of charge fitting functions (nprimf)        50
 Total number of Cartesian basis functions (naos)          6
 Total number of Cartesian core functions  (ncos)          0



 BAS: List of all Elementary Cartesian Basis Functions
 =====================================================

 The numbering in the list below (to the right of the function characteristics) is referred
 to in print-outs of MO eigenvectors and Mulliken populations in the BAS representation
 (as contrasted to the SFO representation).

 Notes:
 1. The functions are characterized by a polynomial prefactor (powers of x,y,z and r) and
    an exponential decay factor alpha.
 2. Since the basis sets are specific for an atom TYPE, the individual functions occur on
    all atoms of that type.
 3. The word 'Core' in the left margin signals that it is a Core Function (CF) : not a
    degree of freedom in the valence set, but only used to ensure orthogonalization of
    the other valence basis functions on the frozen Core Orbitals.


 (power of) X  Y  Z  R     Alpha  on Atom
            ==========     =====     ==========

 H                                    1
                                  ---------------------------------------------------------------------------
            0  0  0  0     0.690      1
            0  0  0  0     0.920      2
            0  0  0  0     1.580      3
            1  0  0  0     1.250      4
            0  1  0  0     1.250      5
            0  0  1  0     1.250      6
1
 ***************************************************************************************************



                                              ***********************
                                              *  T E C H N I C A L  *
                                              ***********************
  



 =============================================================
 P A R A L L E L I Z A T I O N  and  V E C T O R I Z A T I O N
 =============================================================
  
 Nr of parallel processes:                                1
 Maximum vector length in NumInt loops:                 128



 =====================
 S C F   U P D A T E S
 =====================
  
 Max. nr. of cycles:                               300
 Convergence criterion:                              0.0000000100
   secondary criterion:                              0.0000000100

 Mix parameter (when DIIS does not apply):           0.2000000000
 Special mix parameter for the first cycle:          1.0000000000
 Mixed ADIIS+SDIIS will be used                  
    Max number of expansion vectors:                10
    Pure ADIIS when Max([F,P]) is above              0.1000000000
    Pure SDIIS when Max([F,P]) is below              0.0010000000
 Automatic ElectronSmearing (in case of problematic SCF convergence) disabled



 =================
 P R E C I S I O N  ***  (General: NumInt, NeglectFunctionTails, ...)  ***
 =================
  

 NumInt:           Target precision:                12.0000000000
 -------           Initial precision:               10.0000000000
                   Min. precision (optimization):   10.0000000000

 Neglect Functions:          Basis functions:        0.1000000000E-13
 ------------------          Fit functions:          0.1000000000E-13



 ===========================
 L I N E A R   S C A L I N G
 ===========================
  

 Cut-off radii density fit:                        0.1000000000E-97
 Overlap cut-off criterion AO matrix elements:     0.1000000000E-97
 Cut-offs for Coulomb potential and fitted density:0.1000000000E-97
 Cut-off criterion for Coulomb multipole terms:    0.1000000000E-97
 Progressive Convergence parameter:                 0.000000000    
1
 ***************************************************************************************************



                                            ***************************
                                            *  C O M P U T A T I O N  *
                                            ***************************
  

 Number of elements of the density matrix on this node (used, total):        21        21



 ===========================================
 Numerical Integration : Fuzzy Cells (Becke)
 ===========================================
  
 Becke grid quality: VERYGOOD       
  
 Lebedev angular grid order:             min:  13 max:  41
 Nr. of radial points:                   min:  64 max:  64

 Total nr. of points:         64
 Nr. of blocks:                1
 Block length:                64
 Nr. of dummy points:          0


 Test of Precision of the Numerical Integration Grid
 ===================================================

 Integral of the Total Core Density:                   0.00000000000000



 ========================
 Density Fitting (zlmFit)
 ========================
  
 ZlmFit Fit Quality: VERYGOOD       
  
 Max L-expansion:                        min:   0 max:   0
 Nr. of radial interpolation points:     min: 120 max: 120



 =====
 S C F  ***  ScaSCF  ***
 =====
  

 CYCLE    1
 SCF Error: norm([F,P])=      0.000000000000, max([F,P])=      0.000000000000
 orbitals (Q,E):
 ---------------
 S :1...3            ( 1.00    -0.5000)  ( 0.00    -0.0900)  ( 0.00     1.2936)
 P :1...1            ( 0.00     0.1562)

 CYCLE    2
 SCF Error: norm([F,P])=      0.030530534401, max([F,P])=      0.029686130487
 orbitals (Q,E):
 ---------------
 S :1...2            ( 1.00    -0.2270)  ( 0.00     0.1038)
 P :1...1            ( 0.00     0.4131)

 CYCLE    3
  SDIIS (wt  0.000):  0.1732  0.8268
 A-DIIS (wt  1.000):  0.0000  1.0000
  DIIS coefficients:  0.0000  1.0000
 SCF Error: norm([F,P])=      0.007182083560, max([F,P])=      0.006708047987
 orbitals (Q,E):
 ---------------
 S :1...2            ( 1.00    -0.2462)  ( 0.00     0.0917)
 P :1...1            ( 0.00     0.3973)

 CYCLE    4
  SDIIS (wt  0.999):  0.1396  0.8604
 A-DIIS (wt  0.001):  0.0000  1.0000
  DIIS coefficients:  0.1394  0.8606
 SCF Error: norm([F,P])=      0.001173233913, max([F,P])=      0.001141350892
 orbitals (Q,E):
 ---------------
 S :1...2            ( 1.00    -0.2435)  ( 0.00     0.0932)
 P :1...1            ( 0.00     0.3996)

 CYCLE    5
  SDIIS (wt  1.000):  0.0221  0.9779
  DIIS coefficients:  0.0221  0.9779
 SCF Error: norm([F,P])=      0.000027833749, max([F,P])=      0.000023803955
 orbitals (Q,E):
 ---------------
 S :1...2            ( 1.00    -0.2435)  ( 0.00     0.0932)
 P :1...1            ( 0.00     0.3995)

 CYCLE    6
  SDIIS (wt  1.000): -0.0583  1.0583
  DIIS coefficients: -0.0583  1.0583
 SCF Error: norm([F,P])=      0.000001533679, max([F,P])=      0.000001301142
 orbitals (Q,E):
 ---------------
 S :1...2            ( 1.00    -0.2435)  ( 0.00     0.0932)
 P :1...1            ( 0.00     0.3995)

 CYCLE    7
  SDIIS (wt  1.000): -0.0032  1.0032
  DIIS coefficients: -0.0032  1.0032
 SCF Error: norm([F,P])=      0.000000004861, max([F,P])=      0.000000004295
 orbitals (Q,E):
 ---------------
 S :1...2            ( 1.00    -0.2435)  ( 0.00     0.0932)
 P :1...1            ( 0.00     0.3995)

 SCF CONVERGED

 CYCLE    8
1
 ***************************************************************************************************



                                                *******************
                                                *  R E S U L T S  *
                                                *******************
  
 *** Using FIT density in Focky
  SDIIS (wt  1.000):  0.0161  0.9839
  DIIS coefficients:  0.0161  0.9839
 SCF Error: norm([F,P])=      0.000000000079, max([F,P])=      0.000000000070

 Scaled ZORA Orbital Energies, per Irrep and Spin:
 =================================================
                        Occup              E (au)              E (eV)       Diff (eV) with prev. cycle
                        -----      --------------------        ------       --------------------------
 S
               1        1.000     -0.24351585408466E+00        -6.626               4.64E-09
               2        0.000      0.93194835173896E-01         2.536
               3        0.000      0.15151250676879E+01        41.229
 P
               1        0.000      0.39952080212324E+00        10.872


 Partially Occupied:
               1 S                -0.24351585408466E+00
  
 LUMO :        2 S                 0.93194835173896E-01
  


 Orbital Energies, all Irreps
 ========================================

 Irrep        no.  (spin)   Occup              E (au)                E (eV)
 ---------------------------------------------------------------------------
 S             1             1.00       -0.24351585408466E+00        -6.6264
 S             2             0.00        0.93194835173896E-01         2.5360
 P             1             0.00        0.39952080212324E+00        10.8715
 S             3             0.00        0.15151250676879E+01        41.2287


 All Electron Calculation, thus no Orbital Energies of the Core Orbitals are calculated



 =======================================
 M U L L I K E N   P O P U L A T I O N S
 =======================================
  
 The survey below gives for each atom:
 a) the total charge (Z minus electrons)
 b) the net spin polarization (nr of electrons spin-A minus spin-B)
 c) for each spin the atomic electron valence density (integrated) per L-value.

 Atom              Charge    Spin density          S         P         D         F
 ----              ------    ------------       ------    ------    ------    ------
 1 H               0.0000                       1.0000    0.0000    0.0000    0.0000

 Populations of individual BAS functions
 ----------------------------------------
 1 H            0.1855  0.7112  0.1033  0.0000  0.0000  0.0000

 Gross Charges per Atom (Z minus electrons)
 ==========================================
             0.0000
 Net Total:  0.00000000



 =======================================================================
 Electrostatic potential at the Nuclei due to electrons and other nuclei
 =======================================================================
  
         Atom                  Potential
         ----                  ---------
     1)   H                   0.94551096
 *** GO1_GOStep1 ***

 Energy gradients wrt nuclear displacements
 ==========================================

     Atom      Cartesian (a.u./angstrom)
                 X         Y         Z
 ----------------------------------------
     1 C     0.010138 -0.006162  0.001513
     2 C    -0.010730  0.007111 -0.000411
     3 C    -0.004930  0.004723 -0.007354
     4 C     0.016381  0.000617 -0.004779
     5 C     0.001468  0.000692 -0.000768
     6 C     0.001807 -0.004698  0.009905
     7 C    -0.016955  0.005889  0.001007
     8 C    -0.001402 -0.003887  0.002971
     9 C     0.001921  0.001586  0.002298
    10 C    -0.001110 -0.001742  0.002675
    11 C    -0.004211 -0.001405  0.002806
    12 C     0.002578 -0.000851 -0.004375
    13 C    -0.002295  0.000865 -0.006602
    14 C     0.016215 -0.004649 -0.001335
    15 C    -0.000529  0.005192  0.000302
    16 C    -0.015547  0.003867  0.001668
    17 C     0.016298  0.004135 -0.006787
    18 C    -0.018763  0.002422  0.003367
    19 C     0.000111 -0.004289  0.002550
    20 C     0.018408 -0.001632 -0.003826
    21 C    -0.018352  0.001617  0.003837
    22 C     0.018774 -0.002446 -0.003394
    23 C    -0.016408 -0.004054  0.006788
    24 C     0.015792 -0.003709 -0.001703
    25 C    -0.000201  0.004233 -0.002440
    26 C    -0.016312  0.004778  0.001083
    27 C     0.015362 -0.006305 -0.000653
    28 C    -0.014210 -0.001865  0.004343
    29 C     0.009495 -0.004882  0.003724
    30 C     0.001469  0.003663 -0.001960
    31 C    -0.008556  0.007474 -0.002183
    32 C     0.005960 -0.006767 -0.003517
    33 C    -0.000050 -0.000142 -0.001743
    34 C    -0.005433  0.005513  0.007563
    35 C     0.000007  0.003488  0.001254
    36 C    -0.001939 -0.001489  0.002315
    37 C     0.002724  0.003740  0.002924
    38 C    -0.001415 -0.001123 -0.004705
    39 C     0.004274 -0.001993 -0.005702
    40 C     0.001163 -0.004519  0.002253
    41 H     0.001705  0.004632 -0.005041
    42 H    -0.002162 -0.005019  0.003425
    43 H     0.000216 -0.005456  0.003216
    44 H    -0.004271  0.002170 -0.000080
    45 H     0.001330 -0.001753 -0.003682
    46 H     0.003032  0.001935  0.002137
    47 H    -0.001051 -0.003371  0.002342
    48 H    -0.003191  0.002474 -0.000601
    49 H     0.002631 -0.000508 -0.003063
    50 H     0.001849  0.002089  0.002762
    51 H    -0.003792  0.001896 -0.001660
    52 H     0.002375 -0.001995 -0.002934
    53 H     0.002501  0.003398  0.001662
    54 H     0.001025 -0.001812 -0.003925
    55 H     0.002999 -0.000093  0.002278
    56 H    -0.002665  0.004288 -0.001739
    57 H    -0.002231 -0.003191  0.001070
    58 H    -0.002342 -0.001984  0.002750
    59 H     0.003228  0.002598  0.002382
    60 H     0.000270  0.005848 -0.003656
    61 H    -0.003489 -0.002899 -0.001559
    62 H     0.003348 -0.002114  0.000857
    63 H    -0.000510 -0.005192  0.003311
    64 H     0.001583 -0.005562  0.002928
    65 H     0.002722  0.002251  0.002099
    66 H    -0.004625  0.001287  0.000504
    67 H     0.001195 -0.001296 -0.003731
    68 H    -0.001185  0.005926 -0.003267
    69 H     0.001174 -0.005915  0.003269
    70 H    -0.001601  0.005561 -0.002954
    71 H     0.000529  0.005155 -0.003335
    72 H    -0.002700 -0.002286 -0.002097
    73 H    -0.001177  0.001291  0.003635
    74 H     0.004709 -0.001271 -0.000466
    75 H    -0.000185 -0.005891  0.003783
    76 H     0.000063  0.005638 -0.003380
    77 H    -0.004820 -0.000860  0.003653
    78 H    -0.002145 -0.002004 -0.002473
    79 H    -0.002370  0.001725  0.002581
    80 H     0.004512 -0.001509  0.000841
    81 H     0.004254 -0.001062 -0.005521
    82 H    -0.001654  0.000215 -0.003614
    83 H     0.004229 -0.001279  0.000376
    84 H    -0.002380 -0.001680  0.003140
    85 H    -0.000151  0.004083  0.001442
    86 H    -0.001797 -0.001165 -0.003587
    87 H     0.003570 -0.001792  0.000893
    88 H    -0.002201 -0.003164  0.002115
    89 H    -0.000198  0.000029 -0.004272
    90 H     0.004288 -0.002815 -0.000178
    91 H    -0.000596  0.004108  0.000162
    92 H    -0.002552 -0.001583  0.002024
    93 H    -0.002989 -0.002379  0.002552
    94 H     0.001305  0.003367  0.002150
    95 H    -0.003463  0.001214 -0.000560
    96 H     0.002855  0.002728 -0.001874
 ----------------------------------------
 Mulliken charges used for AMS results%charges...
 
----------------------------------------------------------------------
Geometry Convergence after Step   1       (Hartree/Angstrom,Angstrom)
----------------------------------------------------------------------
current energy                              -20.40671148 Hartree
energy change                     -20.40671148     0.00096000    F
constrained gradient max            0.01877402     0.00100000    F
constrained gradient rms            0.00498106     0.00066667    F
gradient max                        0.01877402
gradient rms                        0.00498106
cart. step max                      0.21136329     0.01000000    F
cart. step rms                      0.06458190     0.00666667    F
 
 
--------
Geometry
--------
Formula: C40H56
Atoms
  Index Symbol   x (angstrom)   y (angstrom)   z (angstrom)
      1      C     4.28755638     7.33748314     5.67655367
      2      C     5.57270776     7.44511772     5.25454740
      3      C     3.21728706     8.32211958     5.43234150
      4      C     6.64352577     6.49579266     5.50296205
      5      C     2.36151509     8.68183280     6.67074963
      6      C     2.99932470     8.87618459     4.21082561
      7      C     7.89176213     6.78511646     5.01452875
      8      C     6.32983263     5.24389791     6.28456758
      9      C     3.23068387     9.47364787     7.67647082
     10      C     1.84531880     7.40448228     7.37529253
     11      C     1.12191600     9.51554288     6.27095402
     12      C     3.70629254     8.45579319     2.94358466
     13      C     1.97070537     9.96301353     3.97378362
     14      C     9.09369243     6.01433356     5.13908201
     15      C     1.44714582    10.60822923     5.25565276
     16      C    10.28688216     6.40499821     4.59718485
     17      C    11.53976896     5.69761158     4.67760889
     18      C    12.64145364     6.24575612     4.06040669
     19      C    11.58348126     4.39081547     5.43260245
     20      C    13.97217991     5.73281074     4.01236496
     21      C    15.00184326     6.35684864     3.35538249
     22      C    16.33453342     5.84846026     3.31300642
     23      C    17.43130729     6.38803905     2.67988402
     24      C    18.69192963     5.69655420     2.78379196
     25      C    17.37507257     7.66975150     1.88391055
     26      C    19.87893049     6.07756746     2.22287508
     27      C    21.09744725     5.33946711     2.39282150
     28      C    22.32476993     5.62027725     1.85798792
     29      C    23.50316098     4.81774123     2.18507644
     30      C    22.57124687     6.75808851     0.89359954
     31      C    23.70635911     4.10938352     3.32218280
     32      C    24.88583802     3.29476150     3.65926348
     33      C    25.39894281     3.48815750     5.10705038
     34      C    25.44819056     2.40534313     2.79850087
     35      C    25.47487371     4.99219027     5.45501173
     36      C    24.42929209     2.79996617     6.09874845
     37      C    26.81946141     2.90172840     5.27070881
     38      C    24.93993887     2.13053726     1.40252001
     39      C    26.66126822     1.56977821     3.16231153
     40      C    26.95911287     1.50958254     4.66125751
     41      H     4.02449445     6.48100783     6.29700783
     42      H     5.85706187     8.33219089     4.68662294
     43      H     7.99450075     7.71951615     4.45743810
     44      H     7.19640893     4.58727063     6.39159600
     45      H     5.97202524     5.49146363     7.29372420
     46      H     5.53173496     4.66859452     5.79614514
     47      H     3.56522079    10.42926975     7.25576476
     48      H     4.12659189     8.90456487     7.95143223
     49      H     2.66394441     9.68340723     8.59402814
     50      H     1.33234749     6.73929366     6.66890769
     51      H     2.64865670     6.83857140     7.86039889
     52      H     1.12718046     7.68186454     8.15824231
     53      H     0.36615531     8.84420553     5.83430257
     54      H     0.67425210     9.94117497     7.18018982
     55      H     2.97613060     8.37066329     2.12498737
     56      H     4.22925897     7.50162239     3.04377452
     57      H     4.43986576     9.21039308     2.62097136
     58      H     2.41155395    10.72437197     3.31107542
     59      H     1.13123292     9.53487394     3.39817268
     60      H     9.05006426     5.07675236     5.69017581
     61      H     2.20435107    11.29147252     5.66489965
     62      H     0.55845237    11.21669652     5.04176778
     63      H    10.30801790     7.34663703     4.04370047
     64      H    12.48687329     7.19296478     3.53798916
     65      H    10.87859484     3.66708946     5.00125034
     66      H    12.57540305     3.93337266     5.42326284
     67      H    11.29242830     4.53553785     6.48196188
     68      H    14.19096510     4.79377198     4.52158852
     69      H    14.78079426     7.29214044     2.84020459
     70      H    16.49499994     4.91278219     3.85403765
     71      H    18.68315313     4.78028111     3.37866247
     72      H    18.06616476     8.41672500     2.29754791
     73      H    17.67695406     7.49615462     0.84200445
     74      H    16.37676941     8.11291070     1.87078226
     75      H    19.90958283     6.98798223     1.62707937
     76      H    21.01873051     4.44660075     3.01578554
     77      H    24.31186043     4.85356281     1.45278326
     78      H    23.15870837     7.55758221     1.36813349
     79      H    23.15788261     6.40752001     0.03323462
     80      H    21.64947044     7.20150584     0.50765197
     81      H    22.95761474     4.20506369     4.11142415
     82      H    25.91001823     5.12361340     6.45494699
     83      H    24.48849473     5.46956137     5.45496770
     84      H    26.10610981     5.52992269     4.73660823
     85      H    24.37474365     1.71898674     5.92686234
     86      H    24.76046550     2.96743398     7.13265867
     87      H    23.41156266     3.19944314     6.01206185
     88      H    27.53870038     3.57633036     4.78135716
     89      H    27.07822928     2.89040272     6.33914995
     90      H    23.94182835     2.53721025     1.22402697
     91      H    24.91407007     1.04681211     1.21974159
     92      H    25.61434818     2.55334917     0.64173314
     93      H    27.53543197     1.97962954     2.62595453
     94      H    26.52912174     0.55486455     2.75900334
     95      H    27.96849849     1.11249347     4.83206264
     96      H    26.26377212     0.81241623     5.14859880
 
Total System Charge             0.00000
 


JSONified input:
++++++++++++++++
{
  "Create": "C m=12.0000000000000 /storage/group/lxj18/default/ams2024.201/atomicdata/ADF/ZORA/TZP/C.1s",
  "CorePotentials": {
    "_1": [],
    "_h": "/tmp/amstmp_ams_kid0.1923232114/t12.rel"
  },
  "xc": {
    "gga": "Becke88 Perdew86"
  }
}


JSONified input traversal:
++++++++++++++++++++++++++
2 3 , path = 
7 0 Create, path = Create
2 2 CorePotentials, path = CorePotentials
3 0 _1, path = CorePotentials%_1
7 0 _h, path = CorePotentials%_h
2 1 xc, path = xc
7 0 gga, path = xc%gga
 Using the following fragment file: /scratch/ijc5167/scratch_adf/bcarotene_dftgx
 tm/ams.results/t21.3909DFE2.C


JSONified input:
++++++++++++++++
{
  "Create": "H m=1.00782500000000 /storage/group/lxj18/default/ams2024.201/atomicdata/ADF/ZORA/TZP/H",
  "CorePotentials": {
    "_1": [],
    "_h": "/tmp/amstmp_ams_kid0.1923232114/t12.rel"
  },
  "xc": {
    "gga": "Becke88 Perdew86"
  }
}


JSONified input traversal:
++++++++++++++++++++++++++
2 3 , path = 
7 0 Create, path = Create
2 2 CorePotentials, path = CorePotentials
3 0 _1, path = CorePotentials%_1
7 0 _h, path = CorePotentials%_h
2 1 xc, path = xc
7 0 gga, path = xc%gga
 Using the following fragment file: /scratch/ijc5167/scratch_adf/bcarotene_dftgx
 tm/ams.results/t21.24ADB890.H
 *** GO1_GOStep2 ***

 Energy gradients wrt nuclear displacements
 ==========================================

     Atom      Cartesian (a.u./angstrom)
                 X         Y         Z
 ----------------------------------------
     1 C     0.007593 -0.005540  0.001082
     2 C    -0.008598  0.006144 -0.000080
     3 C    -0.004122  0.005131 -0.005224
     4 C     0.012787 -0.000377 -0.003038
     5 C     0.000983  0.000579 -0.000228
     6 C     0.001116 -0.003997  0.007078
     7 C    -0.013441  0.005131  0.000902
     8 C    -0.001213 -0.003035  0.001758
     9 C     0.001365  0.001186  0.001730
    10 C    -0.000630 -0.001587  0.001712
    11 C    -0.003117 -0.000863  0.001933
    12 C     0.002263 -0.000408 -0.003267
    13 C    -0.001656  0.001140 -0.004782
    14 C     0.012659 -0.004182 -0.000677
    15 C    -0.000294  0.003756  0.000455
    16 C    -0.012383  0.003656  0.001381
    17 C     0.013311  0.002482 -0.004798
    18 C    -0.014913  0.002152  0.002868
    19 C    -0.000247 -0.003229  0.001614
    20 C     0.014497 -0.001773 -0.002575
    21 C    -0.014370  0.001951  0.002893
    22 C     0.015030 -0.002077 -0.002598
    23 C    -0.013202 -0.002186  0.005080
    24 C     0.012460 -0.003322 -0.001006
    25 C     0.000008  0.002905 -0.002083
    26 C    -0.012481  0.004022  0.000571
    27 C     0.012170 -0.004800 -0.000086
    28 C    -0.011177 -0.000663  0.002846
    29 C     0.007887 -0.004433  0.003232
    30 C     0.001236  0.002642 -0.001931
    31 C    -0.007461  0.005242 -0.001795
    32 C     0.006131 -0.005053 -0.002897
    33 C     0.000164  0.000199 -0.000830
    34 C    -0.004216  0.004367  0.005478
    35 C    -0.000257  0.002615  0.000605
    36 C    -0.001312 -0.001186  0.001415
    37 C     0.002109  0.002651  0.002074
    38 C    -0.000881 -0.000366 -0.003760
    39 C     0.003128 -0.002316 -0.003824
    40 C     0.000589 -0.003246  0.001966
    41 H     0.000833  0.002875 -0.003345
    42 H    -0.001467 -0.003347  0.001622
    43 H     0.000288 -0.003915  0.001844
    44 H    -0.002776  0.001482  0.000003
    45 H     0.000948 -0.001008 -0.002451
    46 H     0.002074  0.001376  0.001557
    47 H    -0.000842 -0.002383  0.001484
    48 H    -0.002219  0.001683 -0.000399
    49 H     0.001940 -0.000253 -0.002321
    50 H     0.001204  0.001167  0.002008
    51 H    -0.002295  0.001279 -0.001129
    52 H     0.001657 -0.001136 -0.002065
    53 H     0.001520  0.002160  0.001263
    54 H     0.000878 -0.001104 -0.002766
    55 H     0.002130 -0.000277  0.001793
    56 H    -0.001577  0.002798 -0.000886
    57 H    -0.001612 -0.002271  0.000635
    58 H    -0.001501 -0.001481  0.001787
    59 H     0.002122  0.001530  0.001851
    60 H    -0.000088  0.003860 -0.002507
    61 H    -0.002202 -0.001803 -0.001205
    62 H     0.002266 -0.001591  0.000514
    63 H    -0.000170 -0.003655  0.001973
    64 H     0.001282 -0.003786  0.001659
    65 H     0.001787  0.001528  0.001412
    66 H    -0.002980  0.000959  0.000376
    67 H     0.000811 -0.000799 -0.002578
    68 H    -0.001039  0.003798 -0.002239
    69 H     0.000937 -0.004019  0.001903
    70 H    -0.001366  0.003631 -0.002076
    71 H     0.000089  0.003375 -0.002307
    72 H    -0.001907 -0.001629 -0.001354
    73 H    -0.000724  0.000860  0.002494
    74 H     0.003123 -0.000845 -0.000177
    75 H     0.000060 -0.004015  0.002402
    76 H    -0.000213  0.003707 -0.002416
    77 H    -0.003209 -0.000368  0.002405
    78 H    -0.001571 -0.001573 -0.001586
    79 H    -0.001644  0.001199  0.001677
    80 H     0.003120 -0.000936  0.000652
    81 H     0.002723 -0.000918 -0.003278
    82 H    -0.001038  0.000008 -0.002455
    83 H     0.002825 -0.000878  0.000362
    84 H    -0.001649 -0.001018  0.002063
    85 H    -0.000103  0.002789  0.000851
    86 H    -0.001115 -0.000789 -0.002468
    87 H     0.002182 -0.001046  0.000541
    88 H    -0.001571 -0.002079  0.001487
    89 H    -0.000215 -0.000140 -0.002993
    90 H     0.002743 -0.001728 -0.000078
    91 H    -0.000463  0.002846  0.000192
    92 H    -0.001832 -0.001122  0.001451
    93 H    -0.002285 -0.001327  0.001813
    94 H     0.000950  0.002271  0.001498
    95 H    -0.002352  0.000935 -0.000382
    96 H     0.002020  0.001807 -0.001304
 ----------------------------------------
 Mulliken charges used for AMS results%charges...

 dE(predicted):    -0.11254E-02, dE(actual):    -0.85728E-03, Trust radius:    0.200000, all in a.u.
 
----------------------------------------------------------------------
Geometry Convergence after Step   2       (Hartree/Angstrom,Angstrom)
----------------------------------------------------------------------
current energy                              -20.40756876 Hartree
energy change                      -0.00085728     0.00096000    T
constrained gradient max            0.01503027     0.00100000    F
constrained gradient rms            0.00381830     0.00066667    F
gradient max                        0.01503027
gradient rms                        0.00381830
cart. step max                      0.21245388     0.01000000    F
cart. step rms                      0.08500396     0.00666667    F
 
 
--------
Geometry
--------
Formula: C40H56
Atoms
  Index Symbol   x (angstrom)   y (angstrom)   z (angstrom)
      1      C     4.27443603     7.33914838     5.66100880
      2      C     5.57391905     7.47146490     5.28357630
      3      C     3.19284009     8.29544401     5.36998225
      4      C     6.65212222     6.54710853     5.57557806
      5      C     2.27255241     8.62715077     6.56897512
      6      C     3.01292237     8.84889607     4.13937391
      7      C     7.91168083     6.85367581     5.11749067
      8      C     6.34131720     5.29751296     6.36047534
      9      C     3.07496688     9.43482511     7.61627906
     10      C     1.75608054     7.33356017     7.24239942
     11      C     1.03231148     9.43188360     6.11675920
     12      C     3.77982725     8.44788039     2.90224947
     13      C     1.97007570     9.91114348     3.86247215
     14      C     9.11789275     6.10219157     5.27948699
     15      C     1.37570246    10.53775472     5.12227832
     16      C    10.31936820     6.49786207     4.75075816
     17      C    11.57267689     5.80038392     4.85605108
     18      C    12.67951701     6.34375657     4.23517403
     19      C    11.61860849     4.50651007     5.63123642
     20      C    14.00614153     5.82823112     4.19544347
     21      C    15.03939394     6.43961621     3.52414770
     22      C    16.36428280     5.92044604     3.47395220
     23      C    17.45894030     6.44537213     2.81675124
     24      C    18.71149270     5.74265317     2.90175071
     25      C    17.39829762     7.71984803     2.01108131
     26      C    19.89205852     6.10739376     2.30863490
     27      C    21.10253152     5.35506156     2.44729170
     28      C    22.31798033     5.61719748     1.86936984
     29      C    23.49339920     4.79964265     2.15856721
     30      C    22.54331016     6.74626665     0.89114608
     31      C    23.72571612     4.09453825     3.29484191
     32      C    24.89747807     3.25835937     3.59584224
     33      C    25.46593694     3.45077782     5.02264623
     34      C    25.41305071     2.35146326     2.72078730
     35      C    25.58571413     4.95559237     5.35262269
     36      C    24.51873877     2.79126623     6.05432572
     37      C    26.87891574     2.83623119     5.13988940
     38      C    24.84925585     2.07695651     1.34745105
     39      C    26.61937888     1.49379752     3.04912700
     40      C    26.96805319     1.43735785     4.53699715
     41      H     4.00798277     6.48154594     6.28217278
     42      H     5.86132015     8.36185069     4.71869822
     43      H     8.01291250     7.78502160     4.55099077
     44      H     7.21976651     4.66034245     6.49906875
     45      H     5.94867817     5.54878202     7.35718596
     46      H     5.56904808     4.70030288     5.85392703
     47      H     3.40466873    10.40155583     7.21377851
     48      H     3.97233033     8.88532175     7.92916563
     49      H     2.46030057     9.62526644     8.50862473
     50      H     1.29084844     6.66135479     6.50820330
     51      H     2.55151686     6.78328928     7.76052520
     52      H     0.99644437     7.59019962     7.99462526
     53      H     0.31414013     8.74260376     5.64268442
     54      H     0.53353064     9.84137245     7.00847183
     55      H     3.08396888     8.34894241     2.05403624
     56      H     4.32085345     7.50445472     3.02351133
     57      H     4.50859614     9.22170255     2.61105054
     58      H     2.42239065    10.68552141     3.22068540
     59      H     1.16654977     9.46416720     3.24816301
     60      H     9.07412518     5.16932820     5.84285668
     61      H     2.09855710    11.23744693     5.56826441
     62      H     0.48181295    11.12670130     4.87144647
     63      H    10.34107720     7.43252941     4.18168368
     64      H    12.52432926     7.28484188     3.69773427
     65      H    10.92065010     3.77140126     5.20450667
     66      H    12.61517519     4.05550782     5.63571673
     67      H    11.31812340     4.66681227     6.67710920
     68      H    14.22244442     4.89260716     4.71660134
     69      H    14.82055794     7.37212599     2.99840803
     70      H    16.52543131     4.98692802     4.02274959
     71      H    18.70523053     4.82862250     3.50373684
     72      H    18.10441199     8.46498686     2.40590665
     73      H    17.67903844     7.53320560     0.96412240
     74      H    16.40165929     8.17072308     2.01343157
     75      H    19.91767377     7.01558576     1.70510442
     76      H    21.03191404     4.46364497     3.07703898
     77      H    24.27834184     4.81938274     1.39746665
     78      H    23.15779439     7.54103391     1.34184395
     79      H    23.09588342     6.38300134     0.01207414
     80      H    21.61152483     7.19869074     0.53644537
     81      H    23.00806939     4.21338017     4.11222294
     82      H    26.05884613     5.08681720     6.33663360
     83      H    24.60830689     5.45341912     5.38127228
     84      H    26.20318151     5.47265823     4.60555055
     85      H    24.43663812     1.70892973     5.89327847
     86      H    24.89112097     2.96158712     7.07512569
     87      H    23.50599681     3.21176014     5.99933605
     88      H    27.59392083     3.49384246     4.61893344
     89      H    27.17472558     2.82807731     6.20022474
     90      H    23.85228831     2.50374161     1.20354575
     91      H    24.79674485     0.99121368     1.17416300
     92      H    25.50491195     2.48231317     0.55943195
     93      H    27.48336559     1.88189642     2.47797876
     94      H    26.44994482     0.47871912     2.65660318
     95      H    27.97535162     1.01949446     4.67566382
     96      H    26.27449804     0.75792225     5.05434702
 
Total System Charge             0.00000
 


JSONified input:
++++++++++++++++
{
  "Create": "C m=12.0000000000000 /storage/group/lxj18/default/ams2024.201/atomicdata/ADF/ZORA/TZP/C.1s",
  "CorePotentials": {
    "_1": [],
    "_h": "/tmp/amstmp_ams_kid0.1923232114/t12.rel"
  },
  "xc": {
    "gga": "Becke88 Perdew86"
  }
}


JSONified input traversal:
++++++++++++++++++++++++++
2 3 , path = 
7 0 Create, path = Create
2 2 CorePotentials, path = CorePotentials
3 0 _1, path = CorePotentials%_1
7 0 _h, path = CorePotentials%_h
2 1 xc, path = xc
7 0 gga, path = xc%gga
 Using the following fragment file: /scratch/ijc5167/scratch_adf/bcarotene_dftgx
 tm/ams.results/t21.3909DFE2.C


JSONified input:
++++++++++++++++
{
  "Create": "H m=1.00782500000000 /storage/group/lxj18/default/ams2024.201/atomicdata/ADF/ZORA/TZP/H",
  "CorePotentials": {
    "_1": [],
    "_h": "/tmp/amstmp_ams_kid0.1923232114/t12.rel"
  },
  "xc": {
    "gga": "Becke88 Perdew86"
  }
}


JSONified input traversal:
++++++++++++++++++++++++++
2 3 , path = 
7 0 Create, path = Create
2 2 CorePotentials, path = CorePotentials
3 0 _1, path = CorePotentials%_1
7 0 _h, path = CorePotentials%_h
2 1 xc, path = xc
7 0 gga, path = xc%gga
 Using the following fragment file: /scratch/ijc5167/scratch_adf/bcarotene_dftgx
 tm/ams.results/t21.24ADB890.H
 *** GO1_GOStep3 ***

 Energy gradients wrt nuclear displacements
 ==========================================

     Atom      Cartesian (a.u./angstrom)
                 X         Y         Z
 ----------------------------------------
     1 C     0.004188 -0.003830  0.001344
     2 C    -0.005087  0.004053 -0.000129
     3 C    -0.002823  0.003589 -0.002413
     4 C     0.007559 -0.001012 -0.000934
     5 C     0.000624  0.000256 -0.000083
     6 C     0.000517 -0.002133  0.003285
     7 C    -0.007997  0.003123  0.000248
     8 C    -0.000822 -0.001527  0.000854
     9 C     0.000700  0.000613  0.000568
    10 C    -0.000209 -0.000768  0.000891
    11 C    -0.001342 -0.000857  0.000897
    12 C     0.001069  0.000090 -0.001933
    13 C    -0.000844  0.000801 -0.002645
    14 C     0.007548 -0.002520  0.000225
    15 C    -0.000004  0.001807  0.000132
    16 C    -0.007686  0.002480  0.000646
    17 C     0.008426  0.000497 -0.002401
    18 C    -0.009451  0.001455  0.001677
    19 C    -0.000307 -0.001621  0.000888
    20 C     0.008879 -0.001504 -0.001195
    21 C    -0.008719  0.001826  0.001664
    22 C     0.009224 -0.001503 -0.001777
    23 C    -0.008342 -0.000265  0.002760
    24 C     0.007781 -0.002365 -0.000468
    25 C     0.000411  0.001361 -0.001140
    26 C    -0.007316  0.002955  0.000290
    27 C     0.007446 -0.002909 -0.000250
    28 C    -0.006654  0.000296  0.001295
    29 C     0.005279 -0.002541  0.001181
    30 C     0.001031  0.001337 -0.000797
    31 C    -0.004573  0.003180 -0.000611
    32 C     0.003507 -0.002778 -0.000896
    33 C    -0.000055  0.000188 -0.000391
    34 C    -0.001871  0.001877  0.002677
    35 C    -0.000079  0.001053  0.000049
    36 C    -0.000922 -0.000641  0.000609
    37 C     0.001178  0.001443  0.000798
    38 C    -0.000530 -0.000357 -0.002166
    39 C     0.001658 -0.001152 -0.002241
    40 C     0.000258 -0.001642  0.001182
    41 H    -0.000069  0.000882 -0.001639
    42 H    -0.000439 -0.001399  0.000496
    43 H     0.000467 -0.001724  0.000559
    44 H    -0.001046  0.000645 -0.000104
    45 H     0.000516 -0.000383 -0.001025
    46 H     0.000803  0.000654  0.000625
    47 H    -0.000418 -0.000973  0.000600
    48 H    -0.000860  0.000575 -0.000134
    49 H     0.000783 -0.000078 -0.000869
    50 H     0.000507  0.000441  0.000791
    51 H    -0.000807  0.000593 -0.000584
    52 H     0.000688 -0.000383 -0.000795
    53 H     0.000613  0.000921  0.000551
    54 H     0.000507 -0.000369 -0.001101
    55 H     0.000866 -0.000151  0.000815
    56 H    -0.000698  0.001168 -0.000396
    57 H    -0.000689 -0.000927  0.000359
    58 H    -0.000631 -0.000696  0.000873
    59 H     0.000878  0.000644  0.000935
    60 H    -0.000436  0.001375 -0.001106
    61 H    -0.000877 -0.000717 -0.000481
    62 H     0.000811 -0.000654  0.000205
    63 H     0.000200 -0.001543  0.000556
    64 H     0.000886 -0.001607  0.000555
    65 H     0.000719  0.000777  0.000562
    66 H    -0.001155  0.000422  0.000044
    67 H     0.000365 -0.000294 -0.001047
    68 H    -0.000777  0.001474 -0.000878
    69 H     0.000722 -0.001603  0.000593
    70 H    -0.000983  0.001429 -0.000798
    71 H    -0.000301  0.001320 -0.000925
    72 H    -0.000840 -0.000803 -0.000555
    73 H    -0.000273  0.000254  0.001153
    74 H     0.001085 -0.000441 -0.000073
    75 H     0.000342 -0.001634  0.000700
    76 H    -0.000432  0.001481 -0.000922
    77 H    -0.001504  0.000042  0.001086
    78 H    -0.000659 -0.000747 -0.000574
    79 H    -0.000727  0.000389  0.000731
    80 H     0.001008 -0.000364  0.000251
    81 H     0.001186 -0.000631 -0.001276
    82 H    -0.000423 -0.000015 -0.001092
    83 H     0.001114 -0.000385  0.000153
    84 H    -0.000647 -0.000399  0.000759
    85 H    -0.000016  0.001195  0.000339
    86 H    -0.000493 -0.000339 -0.000946
    87 H     0.001014 -0.000493  0.000105
    88 H    -0.000737 -0.000948  0.000656
    89 H    -0.000154 -0.000052 -0.001259
    90 H     0.001137 -0.000861  0.000059
    91 H    -0.000217  0.001156  0.000149
    92 H    -0.000731 -0.000412  0.000840
    93 H    -0.001043 -0.000465  0.000907
    94 H     0.000297  0.001005  0.000677
    95 H    -0.001012  0.000495 -0.000262
    96 H     0.000928  0.000802 -0.000535
 ----------------------------------------
 Mulliken charges used for AMS results%charges...

 dE(predicted):    -0.13385E-02, dE(actual):    -0.59123E-03, Trust radius:    0.200000, all in a.u.
 Residual max backtransformation error   0.5414E-05
 
----------------------------------------------------------------------
Geometry Convergence after Step   3       (Hartree/Angstrom,Angstrom)
----------------------------------------------------------------------
current energy                              -20.40815999 Hartree
energy change                      -0.00059123     0.00096000    T
constrained gradient max            0.00945117     0.00100000    F
[...]
     451       27.4512         0.000       
     450       27.2585         0.000       
     449       27.2164         0.000       
     448       26.9854         0.000       
     447       26.9491         0.000       
     446       26.8342         0.000       
     445       26.7443         0.000       
     444       26.6048         0.000       
     443       26.5090         0.000       
     442       26.3935         0.000       
     441       26.2738         0.000       
     440       26.2067         0.000       
     439       26.1622         0.000       
     438       26.1096         0.000       
     437       25.9759         0.000       
     436       25.8994         0.000       
     435       25.8442         0.000       
     434       25.7529         0.000       
     433       25.6291         0.000       
     432       25.5460         0.000       
     431       25.4032         0.000       
     430       25.3066         0.000       
     429       25.2111         0.000       
     428       25.1061         0.000       
     427       25.0103         0.000       
     426       24.9042         0.000       
     425       24.7833         0.000       
     424       24.7324         0.000       
     423       24.4429         0.000       
     422       24.3913         0.000       
     421       23.9816         0.000       
     420       23.9432         0.000       
     419       23.7729         0.000       
     418       23.6645         0.000       
     417       23.5723         0.000       
     416       23.4901         0.000       
     415       23.3606         0.000       
     414       23.3080         0.000       
     413       23.1836         0.000       
     412       23.1549         0.000       
     411       23.0070         0.000       
     410       22.8078         0.000       
     409       22.7185         0.000       
     408       22.5542         0.000       
     407       22.3259         0.000       
     406       22.2532         0.000       
     405       22.0849         0.000       
     404       21.8673         0.000       
     403       21.6706         0.000       
     402       21.3643         0.000       
     401       21.2670         0.000       
     400       21.1670         0.000       
     399       21.1247         0.000       
     398       20.8807         0.000       
     397       20.7059         0.000       
     396       20.6136         0.000       
     395       20.4239         0.000       
     394       20.2757         0.000       
     393       20.2353         0.000       
     392       20.2029         0.000       
     391       19.9647         0.000       
     390       19.7800         0.000       
     389       19.6161         0.000       
     388       19.4882         0.000       
     387       19.2609         0.000       
     386       19.2224         0.000       
     385       19.0132         0.000       
     384       18.5948         0.000       
     383       18.5364         0.000       
     382       18.4530         0.000       
     381       18.4284         0.000       
     380       18.2319         0.000       
     379       18.1583         0.000       
     378       17.9652         0.000       
     377       17.9576         0.000       
     376       17.8668         0.000       
     375       17.7358         0.000       
     374       17.6051         0.000       
     373       17.5629         0.000       
     372       17.4084         0.000       
     371       17.2990         0.000       
     370       17.2655         0.000       
     369       17.1570         0.000       
     368       17.0019         0.000       
     367       16.9184         0.000       
     366       16.7866         0.000       
     365       16.6912         0.000       
     364       16.4668         0.000       
     363       16.4171         0.000       
     362       16.3210         0.000       
     361       16.2112         0.000       
     360       16.1592         0.000       
     359       16.0127         0.000       
     358       15.8814         0.000       
     357       15.8326         0.000       
     356       15.7532         0.000       
     355       15.7370         0.000       
     354       15.5600         0.000       
     353       15.4081         0.000       
     352       15.3474         0.000       
     351       15.2684         0.000       
     350       15.2030         0.000       
     349       15.1147         0.000       
     348       15.0149         0.000       
     347       14.8338         0.000       
     346       14.7397         0.000       
     345       14.7054         0.000       
     344       14.6365         0.000       
     343       14.5847         0.000       
     342       14.5215         0.000       
     341       14.4563         0.000       
     340       14.3620         0.000       
     339       14.2800         0.000       
     338       14.1985         0.000       
     337       14.0900         0.000       
     336       14.0461         0.000       
     335       13.9627         0.000       
     334       13.8379         0.000       
     333       13.8199         0.000       
     332       13.7593         0.000       
     331       13.6816         0.000       
     330       13.5607         0.000       
     329       13.4588         0.000       
     328       13.4288         0.000       
     327       13.3271         0.000       
     326       13.2958         0.000       
     325       13.2867         0.000       
     324       13.1384         0.000       
     323       13.0501         0.000       
     322       12.9581         0.000       
     321       12.8165         0.000       
     320       12.7859         0.000       
     319       12.6379         0.000       
     318       12.5643         0.000       
     317       12.4480         0.000       
     316       12.4139         0.000       
     315       12.3460         0.000       
     314       12.2930         0.000       
     313       12.2006         0.000       
     312       12.1696         0.000       
     311       12.1422         0.000       
     310       12.1204         0.000       
     309       11.9085         0.000       
     308       11.8787         0.000       
     307       11.8206         0.000       
     306       11.7179         0.000       
     305       11.6673         0.000       
     304       11.6535         0.000       
     303       11.6030         0.000       
     302       11.5263         0.000       
     301       11.4647         0.000       
     300       11.4433         0.000       
     299       11.3968         0.000       
     298       11.3319         0.000       
     297       11.2275         0.000       
     296       11.1610         0.000       
     295       11.1333         0.000       
     294       11.0158         0.000       
     293       10.9984         0.000       
     292       10.8601         0.000       
     291       10.8123         0.000       
     290       10.7524         0.000       
     289       10.7331         0.000       
     288       10.6900         0.000       
     287       10.5249         0.000       
     286       10.4470         0.000       
     285       10.3899         0.000       
     284       10.2871         0.000       
     283       10.2301         0.000       
     282       10.2171         0.000       
     281       10.1925         0.000       
     280       10.1301         0.000       
     279       10.0750         0.000       
     278        9.9952         0.000       
     277        9.9222         0.000       
     276        9.9003         0.000       
     275        9.8222         0.000       
     274        9.7671         0.000       
     273        9.6823         0.000       
     272        9.6209         0.000       
     271        9.6048         0.000       
     270        9.5533         0.000       
     269        9.4765         0.000       
     268        9.4161         0.000       
     267        9.3613         0.000       
     266        9.3250         0.000       
     265        9.2809         0.000       
     264        9.1622         0.000       
     263        9.0749         0.000       
     262        9.0568         0.000       
     261        8.9850         0.000       
     260        8.9154         0.000       
     259        8.8725         0.000       
     258        8.8308         0.000       
     257        8.7712         0.000       
     256        8.6630         0.000       
     255        8.6138         0.000       
     254        8.5814         0.000       
     253        8.5307         0.000       
     252        8.4368         0.000       
     251        8.4117         0.000       
     250        8.3181         0.000       
     249        8.3068         0.000       
     248        8.2162         0.000       
     247        8.1683         0.000       
     246        8.1038         0.000       
     245        8.0149         0.000       
     244        7.9518         0.000       
     243        7.8103         0.000       
     242        7.7745         0.000       
     241        7.7415         0.000       
     240        7.6435         0.000       
     239        7.5904         0.000       
     238        7.5387         0.000       
     237        7.4939         0.000       
     236        7.4567         0.000       
     235        7.3966         0.000       
     234        7.3025         0.000       
     233        7.2145         0.000       
     232        7.1626         0.000       
     231        7.0938         0.000       
     230        7.0617         0.000       
     229        6.9775         0.000       
     228        6.8685         0.000       
     227        6.8391         0.000       
     226        6.7828         0.000       
     225        6.6727         0.000       
     224        6.6343         0.000       
     223        6.5486         0.000       
     222        6.4771         0.000       
     221        6.3862         0.000       
     220        6.2885         0.000       
     219        6.2693         0.000       
     218        6.1971         0.000       
     217        6.1291         0.000       
     216        6.0492         0.000       
     215        6.0025         0.000       
     214        5.9112         0.000       
     213        5.7855         0.000       
     212        5.7613         0.000       
     211        5.6734         0.000       
     210        5.6560         0.000       
     209        5.5741         0.000       
     208        5.5510         0.000       
     207        5.4339         0.000       
     206        5.3212         0.000       
     205        5.2816         0.000       
     204        5.2521         0.000       
     203        5.2131         0.000       
     202        5.0981         0.000       
     201        5.0653         0.000       
     200        5.0317         0.000       
     199        4.9963         0.000       
     198        4.8534         0.000       
     197        4.8298         0.000       
     196        4.8074         0.000       
     195        4.7508         0.000       
     194        4.7190         0.000       
     193        4.6470         0.000       
     192        4.6161         0.000       
     191        4.5668         0.000       
     190        4.4603         0.000       
     189        4.4012         0.000       
     188        4.3842         0.000       
     187        4.3480         0.000       
     186        4.2491         0.000       
     185        4.1950         0.000       
     184        4.1258         0.000       
     183        4.0960         0.000       
     182        3.9884         0.000       
     181        3.8847         0.000       
     180        3.8653         0.000       
     179        3.7727         0.000       
     178        3.6789         0.000       
     177        3.6153         0.000       
     176        3.5113         0.000       
     175        3.4763         0.000       
     174        3.4418         0.000       
     173        3.3900         0.000       
     172        3.3511         0.000       
     171        3.2285         0.000       
     170        3.1610         0.000       
     169        3.1249         0.000       
     168        3.0250         0.000       
     167        2.9952         0.000       
     166        2.9413         0.000       
     165        2.8517         0.000       
     164        2.8255         0.000       
     163        2.7468         0.000       
     162        2.6781         0.000       
     161        2.6187         0.000       
     160        2.5995         0.000       
     159        2.5819         0.000       
     158        2.5468         0.000       
     157        2.4714         0.000       
     156        2.4024         0.000       
     155        2.3297         0.000       
     154        2.2854         0.000       
     153        2.2684         0.000       
     152        2.2284         0.000       
     151        2.1497         0.000       
     150        2.0424         0.000       
     149        1.9508         0.000       
     148        1.9276         0.000       
     147        1.9205         0.000       
     146        1.8983         0.000       
     145        1.8732         0.000       
     144        1.7589         0.000       
     143        1.6858         0.000       
     142        1.5837         0.000       
     141        1.4528         0.000       
     140        1.3269         0.000       
     139        1.3137         0.000       
     138        1.2921         0.000       
     137        1.2582         0.000       
     136        1.2299         0.000       
     135        1.1144         0.000       
     134        1.0334         0.000       
     133        0.9898         0.000       
     132        0.9512         0.000       
     131        0.8806         0.000       
     130        0.8318         0.000       
     129        0.7461         0.000       
     128        0.6907         0.000       
     127        0.6565         0.000       
     126        0.5431         0.000       
     125        0.5058         0.000       
     124        0.4672         0.000       
     123        0.3836         0.000       
     122        0.3357         0.000       
     121        0.2398         0.000       
     120        0.2087         0.000       
     119        0.1607         0.000       
     118        0.0292         0.000       
     117        0.0285         0.000       
     116       -0.0112         0.000       
     115       -0.1240         0.000       
     114       -0.1609         0.000       
     113       -0.4436         0.000       
     112       -0.9144         0.000       
     111       -1.6271         0.000       
     110       -2.2975         0.000       
     109       -3.1566         0.000 < LUMO
     108       -4.2822         2.000 < HOMO
     107       -4.9296         2.000       
     106       -5.4466         2.000       
     105       -5.8401         2.000       
     104       -6.2146         2.000       
     103       -6.7819         2.000       
     102       -7.0676         2.000       
     101       -7.1798         2.000       
     100       -7.2953         2.000       
      99       -7.4103         2.000       
      98       -7.5850         2.000       
      97       -7.6360         2.000       
      96       -7.7687         2.000       
      95       -7.8078         2.000       
      94       -8.0174         2.000       
      93       -8.1608         2.000       
      92       -8.2365         2.000       
      91       -8.2593         2.000       
      90       -8.2953         2.000       
      89       -8.3463         2.000       
      88       -8.4050         2.000       
      87       -8.4428         2.000       
      86       -8.4521         2.000       
      85       -8.4933         2.000       
      84       -8.5546         2.000       
      83       -8.5629         2.000       
      82       -8.6310         2.000       
      81       -8.7310         2.000       
      80       -8.7875         2.000       
      79       -8.8659         2.000       
      78       -8.9662         2.000       
      77       -9.0229         2.000       
      76       -9.0699         2.000       
      75       -9.1409         2.000       
      74       -9.2509         2.000       
      73       -9.3309         2.000       
      72       -9.3833         2.000       
      71       -9.5006         2.000       
      70       -9.5741         2.000       
      69       -9.6056         2.000       
      68       -9.6680         2.000       
      67       -9.7351         2.000       
      66       -9.7663         2.000       
      65       -9.8019         2.000       
      64       -9.8240         2.000       
      63       -9.9568         2.000       
      62      -10.2522         2.000       
      61      -10.2982         2.000       
      60      -10.3139         2.000       
      59      -10.3399         2.000       
      58      -10.3842         2.000       
      57      -10.3978         2.000       
      56      -10.4122         2.000       
      55      -10.4605         2.000       
      54      -10.4707         2.000       
      53      -10.5733         2.000       
      52      -10.6744         2.000       
      51      -10.7582         2.000       
      50      -10.9923         2.000       
      49      -11.0611         2.000       
      48      -11.1347         2.000       
      47      -11.2189         2.000       
      46      -11.4341         2.000       
      45      -11.5584         2.000       
      44      -11.7127         2.000       
      43      -11.8050         2.000       
      42      -11.8960         2.000       
      41      -12.1126         2.000       
      40      -12.3182         2.000       
      39      -12.3705         2.000       
      38      -12.6368         2.000       
      37      -12.9982         2.000       
      36      -13.1782         2.000       
      35      -13.2825         2.000       
      34      -13.5463         2.000       
      33      -13.7156         2.000       
      32      -13.9259         2.000       
      31      -14.0870         2.000       
      30      -14.3582         2.000       
      29      -14.5719         2.000       
      28      -15.0150         2.000       
      27      -15.3948         2.000       
      26      -15.7978         2.000       
      25      -16.4960         2.000       
      24      -16.6899         2.000       
      23      -16.7380         2.000       
      22      -16.8950         2.000       
      21      -16.9279         2.000       
      20      -16.9498         2.000       
      19      -17.0071         2.000       
      18      -17.1104         2.000       
      17      -17.1660         2.000       
      16      -17.5996         2.000       
      15      -17.9784         2.000       
      14      -18.1108         2.000       
      13      -18.5832         2.000       
      12      -18.8761         2.000       
      11      -19.2933         2.000       
      10      -19.4494         2.000       
       9      -19.6403         2.000       
       8      -19.6787         2.000       
       7      -19.8011         2.000       
       6      -20.4486         2.000       
       5      -20.5975         2.000       
       4      -20.8378         2.000       
       3      -20.9677         2.000       
       2      -21.2953         2.000       
       1      -21.3435         2.000       

AMS application finished. Exiting.
NORMAL TERMINATION
     Total cpu time:     704.19
  Total system time:      13.97
 Total elapsed time:     732.62
