

 Parallel Execution: Process Information
 ==============================================================================
 Rank   Node Name                              NodeID   MyNodeRank  NodeMaster
    0   silicon.science.psu.edu                   0          0          0
    1   silicon.science.psu.edu                   0          1         -1
    2   silicon.science.psu.edu                   0          2         -1
    3   silicon.science.psu.edu                   0          3         -1
    4   silicon.science.psu.edu                   0          4         -1
    5   silicon.science.psu.edu                   0          5         -1
    6   silicon.science.psu.edu                   0          6         -1
    7   silicon.science.psu.edu                   0          7         -1
    8   silicon.science.psu.edu                   0          8         -1
    9   silicon.science.psu.edu                   0          9         -1
 ==============================================================================


May use up to 7586MB of RAM as shared memory on node 0

 *******************************************************************************
 *                                                                             *
 *  --------------------------------                                           *
 *   Amsterdam Modeling Suite (AMS)              2024.201                      *
 *  --------------------------------                                           *
 *                                               r                             *
 *                                                                             *
 *                                                                             *
 *                              =================                              *
 *                              |               |                              *
 *                              |     A M S     |                              *
 *                              |               |                              *
 *                              =================                              *
 *                                                                             *
 *                                                                             *
 *   Online information and documentation:  https://www.scm.com/support/       *
 *   E-mail:  support@scm.com   info@scm.com                                   *
 *                                                                             *
 *   Scientific publications using AMS results must be properly referenced     *
 *   See the User Manuals (or the web site) for recommended citations          *
 *   The terms and conditions of the End User License Agreement apply to       *
 *   the use of AMS, https://www.scm.com/license-terms/                        *
 *                                                                             *
 ***********************  x86_64_linux_intel / openmpi  ************************
 
 Licensed to: Prof. Lasse Jensen / Penn State University / University Park / PA  / USA 2024-04-18 12:23:34
 SCM User ID: u8493
  
 AMS 2024.201  RunTime: Jan28-2025 09:05:44  ShM Nodes: 1  Procs: 10

 AMS jobname: ams
 AMS jobid  : 1758892752

 Start   directory: /scratch/ADF.3459960/
 Results directory: /scratch/ADF.3459960/ams.results/
 Scratch directory: /scratch/ADF.3459960/amstmp_ams_kid0.1758892752/


 Communication costs MPI_COMM_WORLD:      3.075 usec per message,   0.0406 usec per 8-byte item
 Communication costs for intra-node:      2.502 usec per message,   0.0296 usec per 8-byte item

 RNG seed: 1314046871 130856437 -327839065 -1204952405 288501556 901616751 -780472967 1984046976

#####################PyTorch setup###################
Number of threads were not limited, using all available CPU cores.
Using CPU only.
#####################################################

       ***************************
       *  GEOMETRY OPTIMIZATION  *
       ***************************

FIRE optimizer config
       nMin:  5 steps
    dtStart:  0.2500 fs
      dtMax:  1.0000 fs
       fInc:  1.1000
       fDec:  0.5000
 alphaStart:  0.1000
     fAlpha:  0.9900
 Opt. latt.:  F
Convergence criteria:
       Energy:  0.000010 Ha per atom
    Gradients:  0.001000 Ha/Angstrom
         Step:  0.010000 Angstrom
Stress energy:  0.000500 Ha per atom
 
--------
Geometry
--------
Formula: C6H8
Atoms
  Index Symbol   x (angstrom)   y (angstrom)   z (angstrom)
      1      C    -1.47545216     0.09248270     0.00000000
      2      C    -0.77697896    -1.04486102     0.00000000
      3      C     0.66748327    -1.09249849     0.00000000
      4      C     1.36842105    -2.24284259     0.00000000
      5      C     2.81285451    -2.29045659     0.00000000
      6      C     3.51124452    -3.42784039     0.00000000
      7      H     3.02994105    -4.39738449     0.00000000
      8      H     4.59223693    -3.43395736     0.00000000
      9      H    -0.99428823     1.06206468     0.00000000
     10      H    -2.55646878     0.09831057     0.00000000
     11      H    -1.29451160    -2.00139983     0.00000000
     12      H     1.19028900    -0.13867403     0.00000000
     13      H     0.84560912    -3.19666590     0.00000000
     14      H     3.33046662    -1.33392433     0.00000000
 
Total System Charge             0.00000
 
 
------------------
MLPotential Engine
------------------
Backend: aimnet2
Model: AIMNet2-wB97MD3
Model reference: D. M. Anstine, R. Zubatyuk, O. Isayev. https://doi.org/10.26434/chemrxiv-2023-296ch
WorkerCommand sh "/amphome/ijc5167/ams2024.201/bin"/amspython "/amphome/ijc5167/ams2024.201"/scripting/standalone/external_engines/ase_calculators.py --run_mode pipe --backend "aimnet2" --model_name "AIMNet2-wB97MD3" --output mlpotential.txt

Relaxing 42 nuclear degrees of freedom with FIRE.
 Rigid motions settings for: FIRE
 Atomic rotations (x,y,z):     T T T
 Atomic translations (x,y,z):  T T T
 Tolerance:                   1.000000000000000E-006

Geometry at FIRE step 1:
 
--------
Geometry
--------
Formula: C6H8
Atoms
  Index Symbol   x (angstrom)   y (angstrom)   z (angstrom)
      1      C    -1.47546120     0.09242890     0.00000000
      2      C    -0.77709621    -1.04476205     0.00000000
      3      C     0.66762185    -1.09267625     0.00000000
      4      C     1.36828210    -2.24266461     0.00000000
      5      C     2.81297229    -2.29055535     0.00000000
      6      C     3.51125328    -3.42778728     0.00000000
      7      H     3.02989386    -4.39737024     0.00000000
      8      H     4.59221373    -3.43396006     0.00000000
      9      H    -0.99424095     1.06205066     0.00000000
     10      H    -2.55644534     0.09831355     0.00000000
     11      H    -1.29451149    -2.00134165     0.00000000
     12      H     1.19030964    -0.13870818     0.00000000
     13      H     0.84558853    -3.19663172     0.00000000
     14      H     3.33046625    -1.33398279     0.00000000
 
Total System Charge             0.00000
 

Geometry at FIRE step 2:
 
--------
Geometry
--------
Formula: C6H8
Atoms
  Index Symbol   x (angstrom)   y (angstrom)   z (angstrom)
      1      C    -1.47548997     0.09227269     0.00000000
      2      C    -0.77744094    -1.04447179     0.00000000
      3      C     0.66802674    -1.09319524     0.00000000
      4      C     1.36787612    -2.24214496     0.00000000
      5      C     2.81331858    -2.29084502     0.00000000
      6      C     3.51128122    -3.42763312     0.00000000
      7      H     3.02975359    -4.39732584     0.00000000
      8      H     4.59214536    -3.43396712     0.00000000
      9      H    -0.99410043     1.06200695     0.00000000
     10      H    -2.55637625     0.09832142     0.00000000
     11      H    -1.29451181    -2.00116796     0.00000000
     12      H     1.19037111    -0.13881205     0.00000000
     13      H     0.84552719    -3.19652775     0.00000000
     14      H     3.33046583    -1.33415729     0.00000000
 
Total System Charge             0.00000
 

Geometry at FIRE step 3:
 
--------
Geometry
--------
Formula: C6H8
Atoms
  Index Symbol   x (angstrom)   y (angstrom)   z (angstrom)
      1      C    -1.47554408     0.09202979     0.00000000
      2      C    -0.77799291    -1.04400957     0.00000000
      3      C     0.66866568    -1.09401287     0.00000000
      4      C     1.36723543    -2.24132622     0.00000000
      5      C     2.81387307    -2.29130634     0.00000000
      6      C     3.51133401    -3.42739353     0.00000000
      7      H     3.02952350    -4.39724565     0.00000000
      8      H     4.59203528    -3.43397515     0.00000000
      9      H    -0.99386995     1.06192786     0.00000000
     10      H    -2.55626502     0.09833081     0.00000000
     11      H    -1.29451476    -2.00088027     0.00000000
     12      H     1.19047248    -0.13899098     0.00000000
     13      H     0.84542604    -3.19634865     0.00000000
     14      H     3.33046756    -1.33444629     0.00000000
 
Total System Charge             0.00000
 

Geometry at FIRE step 4:
 
--------
Geometry
--------
Formula: C6H8
Atoms
  Index Symbol   x (angstrom)   y (angstrom)   z (angstrom)
      1      C    -1.47563397     0.09172632     0.00000000
      2      C    -0.77872039    -1.04340610     0.00000000
      3      C     0.66948572    -1.09505928     0.00000000
      4      C     1.36641306    -2.24027826     0.00000000
      5      C     2.81460392    -2.29190875     0.00000000
      6      C     3.51142218    -3.42709447     0.00000000
      7      H     3.02920731    -4.39711875     0.00000000
      8      H     4.59188911    -3.43397807     0.00000000
      9      H    -0.99355329     1.06180237     0.00000000
     10      H    -2.55611729     0.09833562     0.00000000
     11      H    -1.29452446    -2.00047886     0.00000000
     12      H     1.19061313    -0.13925613     0.00000000
     13      H     0.84528570    -3.19608327     0.00000000
     14      H     3.33047562    -1.33484946     0.00000000
 
Total System Charge             0.00000
 

Geometry at FIRE step 5:
 
--------
Geometry
--------
Formula: C6H8
Atoms
  Index Symbol   x (angstrom)   y (angstrom)   z (angstrom)
      1      C    -1.47577717     0.09139972     0.00000000
      2      C    -0.77958191    -1.04270221     0.00000000
      3      C     0.67041203    -1.09623621     0.00000000
      4      C     1.36548395    -2.23909926     0.00000000
      5      C     2.81546949    -2.29261158     0.00000000
      6      C     3.51156337    -3.42677319     0.00000000
      7      H     3.02880683    -4.39692602     0.00000000
      8      H     4.59171476    -3.43396600     0.00000000
      9      H    -0.99315231     1.06161123     0.00000000
     10      H    -2.55594103     0.09832603     0.00000000
     11      H    -1.29454805    -1.99995933     0.00000000
     12      H     1.19079429    -0.13962837     0.00000000
     13      H     0.84510492    -3.19571070     0.00000000
     14      H     3.33049717    -1.33537116     0.00000000
 
Total System Charge             0.00000
 

Geometry at FIRE step 6:
 
--------
Geometry
--------
Formula: C6H8
Atoms
  Index Symbol   x (angstrom)   y (angstrom)   z (angstrom)
      1      C    -1.47600184     0.09110488     0.00000000
      2      C    -0.78051983    -1.04195429     0.00000000
      3      C     0.67133401    -1.09740098     0.00000000
      4      C     1.36455886    -2.23793186     0.00000000
      5      C     2.81641193    -2.29335878     0.00000000
      6      C     3.51178595    -3.42648436     0.00000000
      7      H     3.02832056    -4.39663504     0.00000000
      8      H     4.59152510    -3.43392269     0.00000000
      9      H    -0.99266565     1.06132184     0.00000000
     10      H    -2.55574917     0.09828584     0.00000000
     11      H    -1.29459814    -1.99931025     0.00000000
     12      H     1.19102077    -0.14014372     0.00000000
     13      H     0.84487891    -3.19519490     0.00000000
     14      H     3.33054488    -1.33602276     0.00000000
 
Total System Charge             0.00000
 

Geometry at FIRE step 7:
 
--------
Geometry
--------
Formula: C6H8
Atoms
  Index Symbol   x (angstrom)   y (angstrom)   z (angstrom)
      1      C    -1.47635988     0.09089172     0.00000000
      2      C    -0.78152267    -1.04118092     0.00000000
      3      C     0.67216664    -1.09845017     0.00000000
      4      C     1.36372282    -2.23687916     0.00000000
      5      C     2.81741976    -2.29413216     0.00000000
      6      C     3.51214192    -3.42627795     0.00000000
      7      H     3.02771041    -4.39618007     0.00000000
      8      H     4.59132890    -3.43382161     0.00000000
      9      H    -0.99205531     1.06086830     0.00000000
     10      H    -2.55555042     0.09818886     0.00000000
     11      H    -1.29469817    -1.99847078     0.00000000
     12      H     1.19131802    -0.14088662     0.00000000
     13      H     0.84458225    -3.19445134     0.00000000
     14      H     3.33064209    -1.33686518     0.00000000
 
Total System Charge             0.00000
 

Geometry at FIRE step 8:
 
--------
Geometry
--------
Formula: C6H8
Atoms
  Index Symbol   x (angstrom)   y (angstrom)   z (angstrom)
      1      C    -1.47636858     0.09090068     0.00000000
      2      C    -0.78151944    -1.04118495     0.00000000
      3      C     0.67215071    -1.09843110     0.00000000
      4      C     1.36373876    -2.23689818     0.00000000
      5      C     2.81741652    -2.29412819     0.00000000
      6      C     3.51215064    -3.42628692     0.00000000
      7      H     3.02770431    -4.39616891     0.00000000
      8      H     4.59133084    -3.43381697     0.00000000
      9      H    -0.99204924     1.06085710     0.00000000
     10      H    -2.55555235     0.09818428     0.00000000
     11      H    -1.29470230    -1.99846099     0.00000000
     12      H     1.19132226    -0.14090070     0.00000000
     13      H     0.84457800    -3.19443724     0.00000000
     14      H     3.33064621    -1.33687498     0.00000000
 
Total System Charge             0.00000
 

Geometry at FIRE step 9:
 
--------
Geometry
--------
Formula: C6H8
Atoms
  Index Symbol   x (angstrom)   y (angstrom)   z (angstrom)
      1      C    -1.47639455     0.09092737     0.00000000
      2      C    -0.78150989    -1.04119683     0.00000000
      3      C     0.67210323    -1.09837445     0.00000000
      4      C     1.36378624    -2.23695469     0.00000000
      5      C     2.81740695    -2.29411652     0.00000000
      6      C     3.51217668    -3.42631362     0.00000000
      7      H     3.02768602    -4.39613548     0.00000000
      8      H     4.59133667    -3.43380308     0.00000000
      9      H    -0.99203102     1.06082358     0.00000000
     10      H    -2.55555817     0.09817055     0.00000000
     11      H    -1.29471472    -1.99843168     0.00000000
     12      H     1.19133504    -0.14094282     0.00000000
     13      H     0.84456525    -3.19439508     0.00000000
     14      H     3.33065859    -1.33690433     0.00000000
 
Total System Charge             0.00000
 

Geometry at FIRE step 10:
 
--------
Geometry
--------
Formula: C6H8
Atoms
  Index Symbol   x (angstrom)   y (angstrom)   z (angstrom)
      1      C    -1.47643746     0.09097113     0.00000000
      2      C    -0.78149448    -1.04121582     0.00000000
      3      C     0.67202521    -1.09828197     0.00000000
      4      C     1.36386429    -2.23704693     0.00000000
      5      C     2.81739152    -2.29409786     0.00000000
      6      C     3.51221971    -3.42635741     0.00000000
      7      H     3.02765542    -4.39607998     0.00000000
      8      H     4.59134655    -3.43377998     0.00000000
      9      H    -0.99200053     1.06076793     0.00000000
     10      H    -2.55556800     0.09814773     0.00000000
     11      H    -1.29473547    -1.99838293     0.00000000
     12      H     1.19135645    -0.14101268     0.00000000
     13      H     0.84454386    -3.19432513     0.00000000
     14      H     3.33067927    -1.33695316     0.00000000
 
Total System Charge             0.00000
 

Geometry at FIRE step 11:
 
--------
Geometry
--------
Formula: C6H8
Atoms
  Index Symbol   x (angstrom)   y (angstrom)   z (angstrom)
      1      C    -1.47649677     0.09103089     0.00000000
      2      C    -0.78147403    -1.04124068     0.00000000
      3      C     0.67191829    -1.09815666     0.00000000
      4      C     1.36397125    -2.23717192     0.00000000
      5      C     2.81737102    -2.29407347     0.00000000
      6      C     3.51227920    -3.42641722     0.00000000
      7      H     3.02761229    -4.39600264     0.00000000
      8      H     4.59136072    -3.43374774     0.00000000
      9      H    -0.99195757     1.06069037     0.00000000
     10      H    -2.55558211     0.09811587     0.00000000
     11      H    -1.29476470    -1.99831482     0.00000000
     12      H     1.19138676    -0.14110985     0.00000000
     13      H     0.84451360    -3.19422785     0.00000000
     14      H     3.33070839    -1.33702137     0.00000000
 
Total System Charge             0.00000
 

Geometry at FIRE step 12:
 
--------
Geometry
--------
Formula: C6H8
Atoms
  Index Symbol   x (angstrom)   y (angstrom)   z (angstrom)
      1      C    -1.47657177     0.09110512     0.00000000
      2      C    -0.78144971    -1.04126956     0.00000000
      3      C     0.67178479    -1.09800278     0.00000000
      4      C     1.36410480    -2.23732537     0.00000000
      5      C     2.81734665    -2.29404516     0.00000000
      6      C     3.51235441    -3.42649154     0.00000000
      7      H     3.02755626    -4.39590373     0.00000000
      8      H     4.59137957    -3.43370638     0.00000000
      9      H    -0.99190174     1.06059119     0.00000000
     10      H    -2.55560089     0.09807501     0.00000000
     11      H    -1.29480264    -1.99822739     0.00000000
     12      H     1.19142635    -0.14123380     0.00000000
     13      H     0.84447405    -3.19410375     0.00000000
     14      H     3.33074620    -1.33710893     0.00000000
 
Total System Charge             0.00000
 

Geometry at FIRE step 13:
 
--------
Geometry
--------
Formula: C6H8
Atoms
  Index Symbol   x (angstrom)   y (angstrom)   z (angstrom)
      1      C    -1.47666156     0.09119184     0.00000000
      2      C    -0.78142311    -1.04130002     0.00000000
      3      C     0.67162772    -1.09782599     0.00000000
      4      C     1.36426193    -2.23750167     0.00000000
      5      C     2.81731997    -2.29401541     0.00000000
      6      C     3.51244446    -3.42657837     0.00000000
      7      H     3.02748670    -4.39578349     0.00000000
      8      H     4.59140368    -3.43365592     0.00000000
      9      H    -0.99183242     1.06047061     0.00000000
     10      H    -2.55562490     0.09802517     0.00000000
     11      H    -1.29484968    -1.99812059     0.00000000
     12      H     1.19147585    -0.14138398     0.00000000
     13      H     0.84442462    -3.19395338     0.00000000
     14      H     3.33079307    -1.33721590     0.00000000
 
Total System Charge             0.00000
 

Geometry at FIRE step 14:
 
--------
Geometry
--------
Formula: C6H8
Atoms
  Index Symbol   x (angstrom)   y (angstrom)   z (angstrom)
      1      C    -1.47677616     0.09129883     0.00000000
      2      C    -0.78139343    -1.04133187     0.00000000
      3      C     0.67143202    -1.09761298     0.00000000
      4      C     1.36445771    -2.23771401     0.00000000
      5      C     2.81729020    -2.29398445     0.00000000
      6      C     3.51255939    -3.42668553     0.00000000
      7      H     3.02739368    -4.39562694     0.00000000
      8      H     4.59143710    -3.43358991     0.00000000
      9      H    -0.99173972     1.06031363     0.00000000
     10      H    -2.55565817     0.09795998     0.00000000
     11      H    -1.29491252    -1.99798061     0.00000000
     12      H     1.19154263    -0.14157867     0.00000000
     13      H     0.84435793    -3.19375843     0.00000000
     14      H     3.33085568    -1.33735611     0.00000000
 
Total System Charge             0.00000
 

Geometry at FIRE step 15:
 
--------
Geometry
--------
Formula: C6H8
Atoms
  Index Symbol   x (angstrom)   y (angstrom)   z (angstrom)
      1      C    -1.47691930     0.09142615     0.00000000
      2      C    -0.78136375    -1.04135964     0.00000000
      3      C     0.67119583    -1.09736862     0.00000000
      4      C     1.36469400    -2.23795753     0.00000000
      5      C     2.81726040    -2.29395780     0.00000000
      6      C     3.51270296    -3.42681310     0.00000000
      7      H     3.02727010    -4.39542610     0.00000000
      8      H     4.59148346    -3.43350469     0.00000000
      9      H    -0.99161655     1.06011224     0.00000000
     10      H    -2.55570433     0.09787582     0.00000000
     11      H    -1.29499589    -1.99779943     0.00000000
     12      H     1.19163230    -0.14182710     0.00000000
     13      H     0.84426837    -3.19350964     0.00000000
     14      H     3.33093875    -1.33753762     0.00000000
 
Total System Charge             0.00000
 

Geometry at FIRE step 16:
 
--------
Geometry
--------
Formula: C6H8
Atoms
  Index Symbol   x (angstrom)   y (angstrom)   z (angstrom)
      1      C    -1.47709397     0.09157093     0.00000000
      2      C    -0.78133991    -1.04137355     0.00000000
      3      C     0.67092163    -1.09710662     0.00000000
      4      C     1.36496832    -2.23821848     0.00000000
      5      C     2.81723639    -2.29394528     0.00000000
      6      C     3.51287815    -3.42695827     0.00000000
      7      H     3.02710679    -4.39517226     0.00000000
      8      H     4.59154785    -3.43339607     0.00000000
      9      H    -0.99145375     1.05985770     0.00000000
     10      H    -2.55576846     0.09776860     0.00000000
     11      H    -1.29510596    -1.99756767     0.00000000
     12      H     1.19175235    -0.14213903     0.00000000
     13      H     0.84414848    -3.19319724     0.00000000
     14      H     3.33104843    -1.33776983     0.00000000
 
Total System Charge             0.00000
 

Geometry at FIRE step 17:
 
--------
Geometry
--------
Formula: C6H8
Atoms
  Index Symbol   x (angstrom)   y (angstrom)   z (angstrom)
      1      C    -1.47730101     0.09172570     0.00000000
      2      C    -0.78133143    -1.04135847     0.00000000
      3      C     0.67061939    -1.09685352     0.00000000
      4      C     1.36527070    -2.23847030     0.00000000
      5      C     2.81722770    -2.29396202     0.00000000
      6      C     3.51308584    -3.42711362     0.00000000
      7      H     3.02689282    -4.39485751     0.00000000
      8      H     4.59163695    -3.43325996     0.00000000
      9      H    -0.99124040     1.05954209     0.00000000
     10      H    -2.55585720     0.09763427     0.00000000
     11      H    -1.29525017    -1.99727569     0.00000000
     12      H     1.19191195    -0.14252288     0.00000000
     13      H     0.84398908    -3.19281274     0.00000000
     14      H     3.33119212    -1.33806244     0.00000000
 
Total System Charge             0.00000
 

Geometry at FIRE step 18:
 
--------
Geometry
--------
Formula: C6H8
Atoms
  Index Symbol   x (angstrom)   y (angstrom)   z (angstrom)
      1      C    -1.47753775     0.09187776     0.00000000
      2      C    -0.78135113    -1.04129504     0.00000000
      3      C     0.67030852    -1.09664881     0.00000000
      4      C     1.36558175    -2.23867347     0.00000000
      5      C     2.81724714    -2.29402735     0.00000000
      6      C     3.51332334    -3.42726653     0.00000000
      7      H     3.02661715    -4.39447738     0.00000000
      8      H     4.59175832    -3.43309342     0.00000000
      9      H    -0.99096548     1.05916089     0.00000000
     10      H    -2.55597809     0.09747000     0.00000000
     11      H    -1.29543624    -1.99691586     0.00000000
     12      H     1.19212076    -0.14298286     0.00000000
     13      H     0.84378052    -3.19235189     0.00000000
     14      H     3.33137752    -1.33842311     0.00000000
 
Total System Charge             0.00000
 

Geometry at FIRE step 19:
 
--------
Geometry
--------
Formula: C6H8
Atoms
  Index Symbol   x (angstrom)   y (angstrom)   z (angstrom)
      1      C    -1.47779836     0.09201112     0.00000000
      2      C    -0.78141315    -1.04116314     0.00000000
      3      C     0.67001562    -1.09653869     0.00000000
      4      C     1.36587485    -2.23878183     0.00000000
      5      C     2.81730886    -2.29416137     0.00000000
      6      C     3.51358480    -3.42740107     0.00000000
      7      H     3.02626971    -4.39403171     0.00000000
      8      H     4.59191973    -3.43289518     0.00000000
      9      H    -0.99061888     1.05871398     0.00000000
     10      H    -2.55613887     0.09727454     0.00000000
     11      H    -1.29567176    -1.99648345     0.00000000
     12      H     1.19238803    -0.14351842     0.00000000
     13      H     0.84351357    -3.19181519     0.00000000
     14      H     3.33161220    -1.33885665     0.00000000
 
Total System Charge             0.00000
 

Geometry at FIRE step 20:
 
--------
Geometry
--------
Formula: C6H8
Atoms
  Index Symbol   x (angstrom)   y (angstrom)   z (angstrom)
      1      C    -1.47807602     0.09210948     0.00000000
      2      C    -0.78153128    -1.04094469     0.00000000
      3      C     0.66977046    -1.09656860     0.00000000
      4      C     1.36612022    -2.23874995     0.00000000
      5      C     2.81742666    -2.29438210     0.00000000
      6      C     3.51386335    -3.42750102     0.00000000
      7      H     3.02584005    -4.39352278     0.00000000
      8      H     4.59212954    -3.43266477     0.00000000
      9      H    -0.99019015     1.05820358     0.00000000
     10      H    -2.55634788     0.09704749     0.00000000
     11      H    -1.29596537    -1.99597466     0.00000000
     12      H     1.19272349    -0.14412726     0.00000000
     13      H     0.84317849    -3.19120488     0.00000000
     14      H     3.33190477    -1.33936691     0.00000000
 
Total System Charge             0.00000
 

Geometry at FIRE step 21:
 
--------
Geometry
--------
Formula: C6H8
Atoms
  Index Symbol   x (angstrom)   y (angstrom)   z (angstrom)
      1      C    -1.47836502     0.09215878     0.00000000
      2      C    -0.78171760    -1.04062622     0.00000000
      3      C     0.66960277    -1.09677686     0.00000000
      4      C     1.36628813    -2.23853958     0.00000000
      5      C     2.81761264    -2.29470293     0.00000000
      6      C     3.51415326    -3.42755240     0.00000000
      7      H     3.02531513    -4.39295314     0.00000000
      8      H     4.59239775    -3.43240154     0.00000000
      9      H    -0.98966621     1.05763228     0.00000000
     10      H    -2.55661508     0.09678828     0.00000000
     11      H    -1.29632898    -1.99538414     0.00000000
     12      H     1.19313924    -0.14480867     0.00000000
     13      H     0.84276318    -3.19052159     0.00000000
     14      H     3.33226713    -1.33995933     0.00000000
 
Total System Charge             0.00000
 

Geometry at FIRE step 22:
 
--------
Geometry
--------
Formula: C6H8
Atoms
  Index Symbol   x (angstrom)   y (angstrom)   z (angstrom)
      1      C    -1.47866312     0.09215108     0.00000000
      2      C    -0.78197959    -1.04020413     0.00000000
      3      C     0.66953812    -1.09718344     0.00000000
      4      C     1.36635305    -2.23813078     0.00000000
      5      C     2.81787426    -2.29512743     0.00000000
      6      C     3.51445217    -3.42754731     0.00000000
      7      H     3.02467710    -4.39232447     0.00000000
      8      H     4.59273714    -3.43210394     0.00000000
      9      H    -0.98902918     1.05700169     0.00000000
     10      H    -2.55695320     0.09649546     0.00000000
     11      H    -1.29678077    -1.99470301     0.00000000
     12      H     1.19365177    -0.14556648     0.00000000
     13      H     0.84225115    -3.18976143     0.00000000
     14      H     3.33271744    -1.34064289     0.00000000
 
Total System Charge             0.00000
 

Geometry at FIRE step 23:
 
--------
Geometry
--------
Formula: C6H8
Atoms
  Index Symbol   x (angstrom)   y (angstrom)   z (angstrom)
      1      C    -1.47897571     0.09209229     0.00000000
      2      C    -0.78231344    -1.03969615     0.00000000
      3      C     0.66958876    -1.09776610     0.00000000
      4      C     1.36630271    -2.23754584     0.00000000
      5      C     2.81820780    -2.29563786     0.00000000
      6      C     3.51476536    -3.42749173     0.00000000
      7      H     3.02389993    -4.39163613     0.00000000
      8      H     4.59316478    -3.43176859     0.00000000
      9      H    -0.98825297     1.05631111     0.00000000
     10      H    -2.55737928     0.09616581     0.00000000
     11      H    -1.29735079    -1.99391629     0.00000000
     12      H     1.19428567    -0.14641333     0.00000000
     13      H     0.84161779    -3.18891158     0.00000000
     14      H     3.33328573    -1.34143270     0.00000000
 
Total System Charge             0.00000
 

Geometry at FIRE step 24:
 
--------
Geometry
--------
Formula: C6H8
Atoms
  Index Symbol   x (angstrom)   y (angstrom)   z (angstrom)
      1      C    -1.47932345     0.09201955     0.00000000
      2      C    -0.78268700    -1.03916726     0.00000000
      3      C     0.66972836    -1.09840370     0.00000000
      4      C     1.36616349    -2.23690600     0.00000000
      5      C     2.81858113    -2.29616940     0.00000000
      6      C     3.51511334    -3.42742264     0.00000000
      7      H     3.02294829    -4.39088480     0.00000000
      8      H     4.59370148    -3.43138991     0.00000000
      9      H    -0.98730213     1.05555704     0.00000000
     10      H    -2.55791414     0.09579400     0.00000000
     11      H    -1.29808891    -1.99300310     0.00000000
     12      H     1.19507732    -0.14737464     0.00000000
     13      H     0.84082666    -3.18794639     0.00000000
     14      H     3.33402189    -1.34234982     0.00000000
 
Total System Charge             0.00000
 

Geometry at FIRE step 25:
 
--------
Geometry
--------
Formula: C6H8
Atoms
  Index Symbol   x (angstrom)   y (angstrom)   z (angstrom)
      1      C    -1.47973384     0.09200642     0.00000000
      2      C    -0.78302341    -1.03873584     0.00000000
      3      C     0.66985258    -1.09884807     0.00000000
      4      C     1.36603985    -2.23645942     0.00000000
      5      C     2.81891733    -2.29660384     0.00000000
      6      C     3.51552353    -3.42741341     0.00000000
      7      H     3.02182519    -4.39007867     0.00000000
      8      H     4.59434116    -3.43097055     0.00000000
      9      H    -0.98617954     1.05474761     0.00000000
     10      H    -2.55855180     0.09538269     0.00000000
     11      H    -1.29902580    -1.99197438     0.00000000
     12      H     1.19603791    -0.14845501     0.00000000
     13      H     0.83986641    -3.18686134     0.00000000
     14      H     3.33495676    -1.34338327     0.00000000
 
Total System Charge             0.00000
 

Geometry at FIRE step 26:
 
--------
Geometry
--------
Formula: C6H8
Atoms
  Index Symbol   x (angstrom)   y (angstrom)   z (angstrom)
      1      C    -1.48021381     0.09209923     0.00000000
      2      C    -0.78325770    -1.03847946     0.00000000
      3      C     0.66985931    -1.09891869     0.00000000
      4      C     1.36603398    -2.23638659     0.00000000
      5      C     2.81915133    -2.29686385     0.00000000
      6      C     3.51600304    -3.42750987     0.00000000
      7      H     3.02056888    -4.38923613     0.00000000
      8      H     4.59505534    -3.43052058     0.00000000
      9      H    -0.98492332     1.05390111     0.00000000
     10      H    -2.55926413     0.09494178     0.00000000
     11      H    -1.30016408    -1.99087478     0.00000000
     12      H     1.19715773    -0.14961957     0.00000000
     13      H     0.83874659    -3.18569149     0.00000000
     14      H     3.33609319    -1.34448819     0.00000000
 
Total System Charge             0.00000
 

Geometry at FIRE step 27:
 
--------
Geometry
--------
Formula: C6H8
Atoms
  Index Symbol   x (angstrom)   y (angstrom)   z (angstrom)
      1      C    -1.48074448     0.09229558     0.00000000
      2      C    -0.78335771    -1.03841500     0.00000000
      3      C     0.66969871    -1.09856238     0.00000000
      4      C     1.36619582    -2.23674060     0.00000000
      5      C     2.81925070    -2.29693275     0.00000000
      6      C     3.51653312    -3.42770936     0.00000000
      7      H     3.01921351    -4.38837981     0.00000000
      8      H     4.59581808    -3.43005058     0.00000000
      9      H    -0.98356739     1.05304010     0.00000000
     10      H    -2.56002549     0.09448177     0.00000000
     11      H    -1.30152715    -1.98976451     0.00000000
     12      H     1.19845316    -0.15079921     0.00000000
     13      H     0.83745055    -3.18450614     0.00000000
     14      H     3.33745490    -1.34560419     0.00000000
 
Total System Charge             0.00000
 

Geometry at FIRE step 28:
 
--------
Geometry
--------
Formula: C6H8
Atoms
  Index Symbol   x (angstrom)   y (angstrom)   z (angstrom)
      1      C    -1.48124218     0.09249704     0.00000000
      2      C    -0.78335493    -1.03845667     0.00000000
      3      C     0.66943614    -1.09797428     0.00000000
      4      C     1.36646009    -2.23732616     0.00000000
      5      C     2.81924653    -2.29689629     0.00000000
      6      C     3.51703068    -3.42791325     0.00000000
      7      H     3.01780461    -4.38755740     0.00000000
      8      H     4.59658994    -3.42958120     0.00000000
      9      H    -0.98215664     1.05221202     0.00000000
     10      H    -2.56079726     0.09402337     0.00000000
     11      H    -1.30318660    -1.98876039     0.00000000
     12      H     1.19999673    -0.15181975     0.00000000
     13      H     0.83590517    -3.18347977     0.00000000
     14      H     3.33911407    -1.34661435     0.00000000
 
Total System Charge             0.00000
 

Geometry at FIRE step 29:
 
--------
Geometry
--------
Formula: C6H8
Atoms
  Index Symbol   x (angstrom)   y (angstrom)   z (angstrom)
      1      C    -1.48123314     0.09248711     0.00000000
      2      C    -0.78336005    -1.03844976     0.00000000
      3      C     0.66944745    -1.09799558     0.00000000
      4      C     1.36644878    -2.23730485     0.00000000
      5      C     2.81925161    -2.29690319     0.00000000
      6      C     3.51702166    -3.42790333     0.00000000
      7      H     3.01780761    -4.38756218     0.00000000
      8      H     4.59658585    -3.42958333     0.00000000
      9      H    -0.98215955     1.05221679     0.00000000
     10      H    -2.56079326     0.09402553     0.00000000
     11      H    -1.30319781    -1.98877136     0.00000000
     12      H     1.20000766    -0.15180139     0.00000000
     13      H     0.83589416    -3.18349814     0.00000000
     14      H     3.33912535    -1.34660339     0.00000000
 
Total System Charge             0.00000
 

Geometry at FIRE step 30:
 
--------
Geometry
--------
Formula: C6H8
Atoms
  Index Symbol   x (angstrom)   y (angstrom)   z (angstrom)
      1      C    -1.48120654     0.09245840     0.00000000
      2      C    -0.78337487    -1.03843040     0.00000000
      3      C     0.66948045    -1.09805671     0.00000000
      4      C     1.36641578    -2.23724368     0.00000000
      5      C     2.81926632    -2.29692249     0.00000000
      6      C     3.51699515    -3.42787463     0.00000000
      7      H     3.01781661    -4.38757637     0.00000000
      8      H     4.59657345    -3.42958970     0.00000000
      9      H    -0.98216826     1.05223090     0.00000000
     10      H    -2.56078108     0.09403199     0.00000000
     11      H    -1.30323128    -1.98880382     0.00000000
     12      H     1.20004010    -0.15174715     0.00000000
     13      H     0.83586149    -3.18355243     0.00000000
     14      H     3.33915902    -1.34657097     0.00000000
 
Total System Charge             0.00000
 

Geometry at FIRE step 31:
 
--------
Geometry
--------
Formula: C6H8
Atoms
  Index Symbol   x (angstrom)   y (angstrom)   z (angstrom)
      1      C    -1.48116389     0.09241402     0.00000000
      2      C    -0.78339775    -1.03840291     0.00000000
      3      C     0.66953237    -1.09814924     0.00000000
      4      C     1.36636385    -2.23715111     0.00000000
      5      C     2.81928901    -2.29694990     0.00000000
      6      C     3.51695263    -3.42783028     0.00000000
      7      H     3.01783171    -4.38759946     0.00000000
      8      H     4.59655215    -3.42960031     0.00000000
      9      H    -0.98218288     1.05225388     0.00000000
     10      H    -2.56076014     0.09404275     0.00000000
     11      H    -1.30328666    -1.98885656     0.00000000
     12      H     1.20009319    -0.15165923     0.00000000
     13      H     0.83580803    -3.18364043     0.00000000
     14      H     3.33921473    -1.34651829     0.00000000
 
Total System Charge             0.00000
 

Geometry at FIRE step 32:
 
--------
Geometry
--------
Formula: C6H8
Atoms
  Index Symbol   x (angstrom)   y (angstrom)   z (angstrom)
      1      C    -1.48110750     0.09235914     0.00000000
      2      C    -0.78342601    -1.03837458     0.00000000
      3      C     0.66959877    -1.09825907     0.00000000
      4      C     1.36629742    -2.23704123     0.00000000
      5      C     2.81931702    -2.29697811     0.00000000
      6      C     3.51689639    -3.42777543     0.00000000
      7      H     3.01785318    -4.38763082     0.00000000
      8      H     4.59652073    -3.42961524     0.00000000
      9      H    -0.98220365     1.05228506     0.00000000
     10      H    -2.56072922     0.09405790     0.00000000
     11      H    -1.30336373    -1.98892782     0.00000000
     12      H     1.20016578    -0.15154089     0.00000000
     13      H     0.83573491    -3.18375886     0.00000000
     14      H     3.33929228    -1.34644712     0.00000000
 
Total System Charge             0.00000
 

Geometry at FIRE step 33:
 
--------
Geometry
--------
Formula: C6H8
Atoms
  Index Symbol   x (angstrom)   y (angstrom)   z (angstrom)
      1      C    -1.48104050     0.09230099     0.00000000
      2      C    -0.78345586    -1.03835590     0.00000000
      3      C     0.66967339    -1.09836606     0.00000000
      4      C     1.36622273    -2.23693418     0.00000000
      5      C     2.81934657    -2.29699667     0.00000000
      6      C     3.51682954    -3.42771728     0.00000000
      7      H     3.01788142    -4.38766957     0.00000000
      8      H     4.59647733    -3.42963471     0.00000000
      9      H    -0.98223099     1.05232358     0.00000000
     10      H    -2.56068644     0.09407766     0.00000000
     11      H    -1.30346242    -1.98901516     0.00000000
     12      H     1.20025636    -0.15139672     0.00000000
     13      H     0.83564364    -3.18390313     0.00000000
     14      H     3.33939157    -1.34635991     0.00000000
 
Total System Charge             0.00000
 

Geometry at FIRE step 34:
 
--------
Geometry
--------
Formula: C6H8
Atoms
  Index Symbol   x (angstrom)   y (angstrom)   z (angstrom)
      1      C    -1.48096753     0.09224856     0.00000000
      2      C    -0.78348252    -1.03835889     0.00000000
      3      C     0.66974801    -1.09844569     0.00000000
      4      C     1.36614799    -2.23685451     0.00000000
      5      C     2.81937293    -2.29699356     0.00000000
      6      C     3.51675667    -3.42766482     0.00000000
      7      H     3.01791634    -4.38771414     0.00000000
      8      H     4.59642050    -3.42965869     0.00000000
      9      H    -0.98226479     1.05236783     0.00000000
     10      H    -2.56063033     0.09410202     0.00000000
     11      H    -1.30358082    -1.98911406     0.00000000
     12      H     1.20036148    -0.15123476     0.00000000
     13      H     0.83553768    -3.18406519     0.00000000
     14      H     3.33951072    -1.34626118     0.00000000
 
Total System Charge             0.00000
 

Geometry at FIRE step 35:
 
--------
Geometry
--------
Formula: C6H8
Atoms
  Index Symbol   x (angstrom)   y (angstrom)   z (angstrom)
      1      C    -1.48088631     0.09220562     0.00000000
      2      C    -0.78350385    -1.03839554     0.00000000
      3      C     0.66982151    -1.09848107     0.00000000
      4      C     1.36607429    -2.23681909     0.00000000
      5      C     2.81939395    -2.29695680     0.00000000
      6      C     3.51667545    -3.42762175     0.00000000
      7      H     3.01796096    -4.38776708     0.00000000
      8      H     4.59634346    -3.42968952     0.00000000
      9      H    -0.98230796     1.05242035     0.00000000
     10      H    -2.56055410     0.09413334     0.00000000
     11      H    -1.30372783    -1.98922869     0.00000000
     12      H     1.20048710    -0.15104885     0.00000000
     13      H     0.83541101    -3.18425119     0.00000000
     14      H     3.33965867    -1.34614679     0.00000000
 
Total System Charge             0.00000
 

Geometry at FIRE step 36:
 
--------
Geometry
--------
Formula: C6H8
Atoms
  Index Symbol   x (angstrom)   y (angstrom)   z (angstrom)
      1      C    -1.48080050     0.09217998     0.00000000
      2      C    -0.78351544    -1.03847759     0.00000000
      3      C     0.66988663    -1.09844824     0.00000000
      4      C     1.36600884    -2.23685192     0.00000000
      5      C     2.81940528    -2.29687469     0.00000000
      6      C     3.51658947    -3.42759588     0.00000000
      7      H     3.01801515    -4.38782730     0.00000000
      8      H     4.59624370    -3.42972782     0.00000000
      9      H    -0.98236035     1.05248001     0.00000000
     10      H    -2.56045525     0.09417228     0.00000000
     11      H    -1.30390223    -1.98935400     0.00000000
     12      H     1.20062973    -0.15084791     0.00000000
     13      H     0.83526710    -3.18445217     0.00000000
     14      H     3.33983421    -1.34602181     0.00000000
 
Total System Charge             0.00000
 

Geometry at FIRE step 37:
 
--------
Geometry
--------
Formula: C6H8
Atoms
  Index Symbol   x (angstrom)   y (angstrom)   z (angstrom)
      1      C    -1.48071203     0.09217610     0.00000000
      2      C    -0.78351427    -1.03861305     0.00000000
      3      C     0.66993885    -1.09833032     0.00000000
      4      C     1.36595613    -2.23696989     0.00000000
      5      C     2.81940386    -2.29673917     0.00000000
      6      C     3.51650067    -3.42759167     0.00000000
      7      H     3.01807849    -4.38789422     0.00000000
      8      H     4.59611848    -3.42977473     0.00000000
      9      H    -0.98242150     1.05254621     0.00000000
     10      H    -2.56033097     0.09422000     0.00000000
     11      H    -1.30410297    -1.98948459     0.00000000
     12      H     1.20078580    -0.15064133     0.00000000
     13      H     0.83510951    -3.18465872     0.00000000
     14      H     3.34003628    -1.34589168     0.00000000
 
Total System Charge             0.00000
 

Geometry at FIRE step 38:
 
--------
Geometry
--------
Formula: C6H8
Atoms
  Index Symbol   x (angstrom)   y (angstrom)   z (angstrom)
      1      C    -1.48061913     0.09219176     0.00000000
      2      C    -0.78349986    -1.03880280     0.00000000
      3      C     0.66997901    -1.09812482     0.00000000
      4      C     1.36591526    -2.23717551     0.00000000
      5      C     2.81938922    -2.29654938     0.00000000
      6      C     3.51640722    -3.42760689     0.00000000
      7      H     3.01815017    -4.38796835     0.00000000
      8      H     4.59596419    -3.42983246     0.00000000
      9      H    -0.98249053     1.05261940     0.00000000
     10      H    -2.56017762     0.09427877     0.00000000
     11      H    -1.30432985    -1.98961471     0.00000000
     12      H     1.20095188    -0.15043881     0.00000000
     13      H     0.83494165    -3.18486108     0.00000000
     14      H     3.34026473    -1.34576219     0.00000000
 
Total System Charge             0.00000
 
Geometry optimization converged

Optimized geometry:
 
--------
Geometry
--------
Formula: C6H8
Atoms
  Index Symbol   x (angstrom)   y (angstrom)   z (angstrom)
      1      C    -1.48061913     0.09219176     0.00000000
      2      C    -0.78349986    -1.03880280     0.00000000
      3      C     0.66997901    -1.09812482     0.00000000
      4      C     1.36591526    -2.23717551     0.00000000
      5      C     2.81938922    -2.29654938     0.00000000
      6      C     3.51640722    -3.42760689     0.00000000
      7      H     3.01815017    -4.38796835     0.00000000
      8      H     4.59596419    -3.42983246     0.00000000
      9      H    -0.98249053     1.05261940     0.00000000
     10      H    -2.56017762     0.09427877     0.00000000
     11      H    -1.30432985    -1.98961471     0.00000000
     12      H     1.20095188    -0.15043881     0.00000000
     13      H     0.83494165    -3.18486108     0.00000000
     14      H     3.34026473    -1.34576219     0.00000000
 
Total System Charge             0.00000
 
Performing a single point calculation on the final geometry ...



    =====================
     CALCULATION RESULTS
    =====================

Energy (hartree)          -233.55148993

Gradients (hartree/bohr)
  Index   Atom            d/dx            d/dy            d/dz
      1      C   -0.0000484165    0.0000309504    0.0000000000
      2      C   -0.0000287078    0.0002050696    0.0000000000
      3      C    0.0000005048   -0.0002470854    0.0000000000
      4      C    0.0000010060    0.0002475725    0.0000000000
      5      C    0.0000289535   -0.0002051264    0.0000000000
      6      C    0.0000499493   -0.0000312503    0.0000000000
      7      H   -0.0000717698    0.0000189090    0.0000000000
      8      H    0.0001415489    0.0000229278    0.0000000000
      9      H    0.0000685895   -0.0000174416    0.0000000000
     10      H   -0.0001420843   -0.0000247685    0.0000000000
     11      H    0.0001312097    0.0000002215    0.0000000000
     12      H   -0.0000122194    0.0000666448    0.0000000000
     13      H    0.0000139368   -0.0000677393    0.0000000000
     14      H   -0.0001325005    0.0000011146    0.0000000000


--------------
Atomic charges
--------------
  Index   Atom    Charge
      1      C   -0.3224
      2      C   -0.0965
      3      C   -0.1102
      4      C   -0.1102
      5      C   -0.0965
      6      C   -0.3224
      7      H    0.1431
      8      H    0.1408
      9      H    0.1431
     10      H    0.1408
     11      H    0.1223
     12      H    0.1229
     13      H    0.1229
     14      H    0.1223


Dipole moment vector    (Debye):     0.00008101   -0.00003273    0.00000000
              magnitude (Debye):     0.00008737

Engine energy uncertainty (hartree)              0.00072013

Uncertainty in Gradients (hartree/bohr)
  Index   Atom            d/dx            d/dy            d/dz       Magnitude
      1      C    0.0006133215    0.0005293320    0.0000000000    0.0005901884
      2      C    0.0006031412    0.0004786754    0.0000000000    0.0004813711
      3      C    0.0011349358    0.0009977558    0.0000000000    0.0009977564
      4      C    0.0011350956    0.0009974970    0.0000000000    0.0009974994
      5      C    0.0006027051    0.0004788824    0.0000000000    0.0004816061
      6      C    0.0006131744    0.0005291136    0.0000000000    0.0005907375
      7      H    0.0002419186    0.0004507263    0.0000000000    0.0002606002
      8      H    0.0004343114    0.0001753547    0.0000000000    0.0004296395
      9      H    0.0002418996    0.0004506505    0.0000000000    0.0002594147
     10      H    0.0004342606    0.0001754194    0.0000000000    0.0004288684
     11      H    0.0010850163    0.0002600274    0.0000000000    0.0010850148
     12      H    0.0007504034    0.0006783932    0.0000000000    0.0006808551
     13      H    0.0007503995    0.0006782077    0.0000000000    0.0006812884
     14      H    0.0010849868    0.0002599759    0.0000000000    0.0010849506
 Pipe worker finished

AMS application finished. Exiting.
NORMAL TERMINATION
Total external time:       2.78
     Total cpu time:       0.81
  Total system time:       0.08
 Total elapsed time:       9.32
