

 Parallel Execution: Process Information
 ==============================================================================
 Rank   Node Name                              NodeID   MyNodeRank  NodeMaster
    0   silicon.science.psu.edu                   0          0          0
    1   silicon.science.psu.edu                   0          1         -1
    2   silicon.science.psu.edu                   0          2         -1
    3   silicon.science.psu.edu                   0          3         -1
    4   silicon.science.psu.edu                   0          4         -1
    5   silicon.science.psu.edu                   0          5         -1
    6   silicon.science.psu.edu                   0          6         -1
    7   silicon.science.psu.edu                   0          7         -1
    8   silicon.science.psu.edu                   0          8         -1
    9   silicon.science.psu.edu                   0          9         -1
 ==============================================================================


May use up to 7586MB of RAM as shared memory on node 0

 *******************************************************************************
 *                                                                             *
 *  --------------------------------                                           *
 *   Amsterdam Modeling Suite (AMS)              2024.201                      *
 *  --------------------------------                                           *
 *                                               r                             *
 *                                                                             *
 *                                                                             *
 *                              =================                              *
 *                              |               |                              *
 *                              |     A M S     |                              *
 *                              |               |                              *
 *                              =================                              *
 *                                                                             *
 *                                                                             *
 *   Online information and documentation:  https://www.scm.com/support/       *
 *   E-mail:  support@scm.com   info@scm.com                                   *
 *                                                                             *
 *   Scientific publications using AMS results must be properly referenced     *
 *   See the User Manuals (or the web site) for recommended citations          *
 *   The terms and conditions of the End User License Agreement apply to       *
 *   the use of AMS, https://www.scm.com/license-terms/                        *
 *                                                                             *
 ***********************  x86_64_linux_intel / openmpi  ************************
 
 Licensed to: Prof. Lasse Jensen / Penn State University / University Park / PA  / USA 2024-04-18 12:23:34
 SCM User ID: u8493
  
 AMS 2024.201  RunTime: Feb26-2025 18:26:47  ShM Nodes: 1  Procs: 10

 AMS jobname: ams
 AMS jobid  : 1941304019

 Start   directory: /scratch/ADF.3149069/
 Results directory: /scratch/ADF.3149069/ams.results/
 Scratch directory: /scratch/ADF.3149069/amstmp_ams_kid0.1941304019/


 Communication costs MPI_COMM_WORLD:      3.283 usec per message,   0.0453 usec per 8-byte item
 Communication costs for intra-node:      2.453 usec per message,   0.0332 usec per 8-byte item

 RNG seed: 552903046 -283230681 -96176947 43944333 -1607528945 -772070108 -183097785 -64610321

       ***************************
       *  GEOMETRY OPTIMIZATION  *
       ***************************

Optimization Method                    Quasi Newton
Optimization Coordinates               Delocalized Coordinates
Optimize lattice                       F
 
 ------------------------------------------------------
 Convergence criteria (Hartree,Angstrom)
 ------------------------------------------------------
 Maximum gradient               0.000010000000
 Maximum rms gradient           0.000006666667
 Maximum step allowed           0.000100000000
 Maximum rms step allowed       0.000066666667
 Maximum energy change allowe   0.000001400000
 Maximum stress energy allowe   0.000005000000
 
Initial model Hessian                  Automatic Hessian
 
------------------------------------
Quasi-Newton Optimizer Parameters
------------------------------------
Hessian Update Method                  BFGS
Maximum number of steps                  250
First GDIIS cycle                          0
Maximum GDIIS vectors                      0
Trust radius (bohr)                        0.200000
Trust radius varies                        T
Constraints converged at all steps         T
Use projector                              T
 
 Rigid motions settings for: old optimizer
 Atomic rotations (x,y,z):     T T T
 Atomic translations (x,y,z):  T T T
 Tolerance:                   1.000000000000000E-006
 
--------
Geometry
--------
Formula: C6H8
Atoms
  Index Symbol   x (angstrom)   y (angstrom)   z (angstrom)
      1      C    -1.47545216     0.09248270     0.00000000
      2      C    -0.77697896    -1.04486102     0.00000000
      3      C     0.66748327    -1.09249849     0.00000000
      4      C     1.36842105    -2.24284259     0.00000000
      5      C     2.81285451    -2.29045659     0.00000000
      6      C     3.51124452    -3.42784039     0.00000000
      7      H     3.02994105    -4.39738449     0.00000000
      8      H     4.59223693    -3.43395736     0.00000000
      9      H    -0.99428823     1.06206468     0.00000000
     10      H    -2.55646878     0.09831057     0.00000000
     11      H    -1.29451160    -2.00139983     0.00000000
     12      H     1.19028900    -0.13867403     0.00000000
     13      H     0.84560912    -3.19666590     0.00000000
     14      H     3.33046662    -1.33392433     0.00000000
 
Total System Charge             0.00000
 
 
-------------------------
DFTB Engine configuration
-------------------------
DFTB Resources dir                     /amphome/ijc5167/ams2024.201/atomicdata/DFTB/GFN1-xTB
 
SCC convergence enabled.
Maximum SCC cycles                       500
SCC charge convergence                   0.000000010000
SCC Multi Stepper from                 DFTB/default2023.inc
Spin polarization                      F
Orbital-dependent SCC                  T
Orbital fill strategy                  Fermi
Fermi temperature (kelvin)                     300.0000
  ... kT (Hartree)                               0.0010
Use of symmetry                        T
Radial function extrapolation method   Auto

 Settings for Grimme D3 dispersion correction

      damping                        BJ
      s6                          1.000
      s8                          2.400
      a1                          0.630
      a2                          5.000

 Other (technical) parameters

      alpha                      14.000
      version                         4
 

---------------------
Periodic DFTB options
---------------------
 kpoints config
 grid method with params
Assume insulator                        F
Ewald tolerance                    1.00E-10
Ewald range factor                  2.00

 BZStruct config
 ---------------
 Enabled        T
 Automatic      T
 CalcFatBands   T
 useSymmetry    T
 deltaK          0.100000000000000     
 
Number of symmetry operators: 2
Schoenflies symbol:           C(S)
 Using automatic Hessian for delocalized coordinates.
 
----------------------------------------------------------------------
Geometry Convergence after Step   1       (Hartree/Angstrom,Angstrom)
----------------------------------------------------------------------
current energy                              -16.91317168 Hartree
energy change                     -16.91317168     0.00000140    F
constrained gradient max            0.00017415     0.00001000    F
constrained gradient rms            0.00005659     0.00000667    F
gradient max                        0.00017415
gradient rms                        0.00005659
cart. step max                      0.00020108     0.00010000    F
cart. step rms                      0.00006378     0.00006667    T
 
 
--------
Geometry
--------
Formula: C6H8
Atoms
  Index Symbol   x (angstrom)   y (angstrom)   z (angstrom)
      1      C    -1.47537381     0.09242068     0.00000000
      2      C    -0.77698152    -1.04491808     0.00000000
      3      C     0.66745031    -1.09254265     0.00000000
      4      C     1.36841293    -2.24280387     0.00000000
      5      C     2.81283458    -2.29043153     0.00000000
      6      C     3.51119437    -3.42779172     0.00000000
      7      H     3.02986182    -4.39733902     0.00000000
      8      H     4.59219896    -3.43395472     0.00000000
      9      H    -0.99411111     1.06198740     0.00000000
     10      H    -2.55638702     0.09842806     0.00000000
     11      H    -1.29449804    -2.00147281     0.00000000
     12      H     1.19008792    -0.13865892     0.00000000
     13      H     0.84576842    -3.19668402     0.00000000
     14      H     3.33038851    -1.33388587     0.00000000
 
Total System Charge             0.00000
 
 
----------------------------------------------------------------------
Geometry Convergence after Step   2       (Hartree/Angstrom,Angstrom)
----------------------------------------------------------------------
current energy                              -16.91317171 Hartree
energy change                      -0.00000003     0.00000140    T
constrained gradient max            0.00006656     0.00001000    F
constrained gradient rms            0.00002092     0.00000667    F
gradient max                        0.00006656
gradient rms                        0.00002092
cart. step max                      0.00017199     0.00010000    F
cart. step rms                      0.00004908     0.00006667    T
 
 
--------
Geometry
--------
Formula: C6H8
Atoms
  Index Symbol   x (angstrom)   y (angstrom)   z (angstrom)
      1      C    -1.47536851     0.09240599     0.00000000
      2      C    -0.77701802    -1.04495293     0.00000000
      3      C     0.66741762    -1.09257572     0.00000000
      4      C     1.36841995    -2.24279075     0.00000000
      5      C     2.81285622    -2.29042291     0.00000000
      6      C     3.51120351    -3.42778301     0.00000000
      7      H     3.02985061    -4.39733326     0.00000000
      8      H     4.59221608    -3.43399719     0.00000000
      9      H    -0.99402714     1.06195996     0.00000000
     10      H    -2.55638021     0.09858855     0.00000000
     11      H    -1.29452132    -2.00152226     0.00000000
     12      H     1.18991594    -0.13863193     0.00000000
     13      H     0.84591831    -3.19673242     0.00000000
     14      H     3.33036330    -1.33385918     0.00000000
 
Total System Charge             0.00000
 
 
----------------------------------------------------------------------
Geometry Convergence after Step   3       (Hartree/Angstrom,Angstrom)
----------------------------------------------------------------------
current energy                              -16.91317172 Hartree
energy change                      -0.00000001     0.00000140    T
constrained gradient max            0.00002002     0.00001000    F
constrained gradient rms            0.00000583     0.00000667    T
gradient max                        0.00002002
gradient rms                        0.00000583
cart. step max                      0.00003584     0.00010000    T
cart. step rms                      0.00000900     0.00006667    T
 
 
--------
Geometry
--------
Formula: C6H8
Atoms
  Index Symbol   x (angstrom)   y (angstrom)   z (angstrom)
      1      C    -1.47537088     0.09240077     0.00000000
      2      C    -0.77702904    -1.04496215     0.00000000
      3      C     0.66741616    -1.09258119     0.00000000
      4      C     1.36841905    -2.24279348     0.00000000
      5      C     2.81286511    -2.29041604     0.00000000
      6      C     3.51120636    -3.42777881     0.00000000
      7      H     3.02984813    -4.39732655     0.00000000
      8      H     4.59221800    -3.43400913     0.00000000
      9      H    -0.99401405     1.06194892     0.00000000
     10      H    -2.55638175     0.09862439     0.00000000
     11      H    -1.29453290    -2.00153157     0.00000000
     12      H     1.18989931    -0.13862609     0.00000000
     13      H     0.84593487    -3.19674805     0.00000000
     14      H     3.33036798    -1.33384808     0.00000000
 
Total System Charge             0.00000
 
 
---------------------------------------------------------
Geometry Convergence after Step   4       ** CONVERGED **
---------------------------------------------------------
current energy                              -16.91317172 Hartree
energy change                      -0.00000000     0.00000140    T
constrained gradient max            0.00000742     0.00001000    T
constrained gradient rms            0.00000226     0.00000667    T
gradient max                        0.00000742
gradient rms                        0.00000226
cart. step max                      0.00001268     0.00010000    T
cart. step rms                      0.00000322     0.00006667    T
 
Geometry optimization converged

Optimized geometry:
 
--------
Geometry
--------
Formula: C6H8
Atoms
  Index Symbol   x (angstrom)   y (angstrom)   z (angstrom)
      1      C    -1.47537088     0.09240077     0.00000000
      2      C    -0.77702904    -1.04496215     0.00000000
      3      C     0.66741616    -1.09258119     0.00000000
      4      C     1.36841905    -2.24279348     0.00000000
      5      C     2.81286511    -2.29041604     0.00000000
      6      C     3.51120636    -3.42777881     0.00000000
      7      H     3.02984813    -4.39732655     0.00000000
      8      H     4.59221800    -3.43400913     0.00000000
      9      H    -0.99401405     1.06194892     0.00000000
     10      H    -2.55638175     0.09862439     0.00000000
     11      H    -1.29453290    -2.00153157     0.00000000
     12      H     1.18989931    -0.13862609     0.00000000
     13      H     0.84593487    -3.19674805     0.00000000
     14      H     3.33036798    -1.33384808     0.00000000
 
Total System Charge             0.00000
 
Performing a single point calculation on the final geometry ...

Estimated upper bound for memory consumption:    0.195 MiB

Number of basis functions:           40
cyc=  1 err=1.6E-08 method=1 nvec= 1 mix=0.075 e=    0.0000
cyc=  2 err=1.2E-08 method=1 nvec= 2 mix=0.154 e=    0.0000
cyc=  3 err=1.4E-09 method=1 nvec= 3 mix=0.159 e=    0.0000
 Evaluation was successful


    =====================
     CALCULATION RESULTS
    =====================

Energy (hartree)           -16.91317172

Gradients (hartree/bohr)
  Index   Atom            d/dx            d/dy            d/dz
      1      C   -0.0000001955    0.0000006684    0.0000000000
      2      C    0.0000039291    0.0000011748    0.0000000000
      3      C   -0.0000037065   -0.0000000746   -0.0000000000
      4      C    0.0000030123    0.0000006141    0.0000000000
      5      C   -0.0000030194   -0.0000011725   -0.0000000000
      6      C   -0.0000000453    0.0000003809    0.0000000000
      7      H   -0.0000005512   -0.0000004800   -0.0000000000
      8      H    0.0000006990    0.0000005286   -0.0000000000
      9      H    0.0000006492    0.0000004121   -0.0000000000
     10      H   -0.0000001350   -0.0000010769   -0.0000000000
     11      H   -0.0000002420   -0.0000005228    0.0000000000
     12      H   -0.0000009587   -0.0000012016    0.0000000000
     13      H    0.0000009980    0.0000012254   -0.0000000000
     14      H   -0.0000004339   -0.0000004759    0.0000000000


--------------
Atomic charges
--------------
  Index   Atom    Charge
      1      C   -0.0735
      2      C   -0.0177
      3      C   -0.0312
      4      C   -0.0312
      5      C   -0.0177
      6      C   -0.0735
      7      H    0.0320
      8      H    0.0329
      9      H    0.0320
     10      H    0.0329
     11      H    0.0278
     12      H    0.0297
     13      H    0.0297
     14      H    0.0278


Dipole moment vector    (Debye):    -0.00000050    0.00000139    0.00000000
              magnitude (Debye):     0.00000148


-----------------------
Molecular orbitals info
-----------------------
n orbitals:               40
n spin:                    1

HOMO (eV):             -11.0829
LUMO (eV):              -8.2301
HOMO-LUMO gap (eV):      2.8528

   Index   Energy (eV)    Occupation
      40       17.9151         0.000       
      39       16.0379         0.000       
      38       13.6792         0.000       
      37       13.5621         0.000       
      36       11.9922         0.000       
      35       11.1309         0.000       
      34        8.7526         0.000       
      33        8.5563         0.000       
      32        6.9379         0.000       
      31        6.5858         0.000       
      30        6.4831         0.000       
      29        5.9720         0.000       
      28        3.3154         0.000       
      27       -1.1892         0.000       
      26       -1.4841         0.000       
      25       -1.7412         0.000       
      24       -2.2825         0.000       
      23       -2.4327         0.000       
      22       -2.8896         0.000       
      21       -2.9338         0.000       
      20       -3.3339         0.000       
      19       -4.4204         0.000       
      18       -6.1149         0.000       
      17       -8.2301         0.000 < LUMO
      16      -11.0829         2.000 < HOMO
      15      -12.5445         2.000       
      14      -12.8218         2.000       
      13      -13.1928         2.000       
      12      -13.3645         2.000       
      11      -13.4736         2.000       
      10      -13.8763         2.000       
       9      -14.2971         2.000       
       8      -14.8898         2.000       
       7      -15.3090         2.000       
       6      -15.9921         2.000       
       5      -16.3398         2.000       
       4      -16.6151         2.000       
       3      -17.3988         2.000       
       2      -17.7260         2.000       
       1      -17.8722         2.000       
 
--------------------
Energy Decomposition
--------------------
Total Energy (hartree)               -16.91317172
Total Energy (eV)                   -460.23081928
Electronic Energy (hartree)          -17.22520153
Coulomb Energy (hartree)               0.00054520
Repulsion Energy (hartree)             0.31618959
Dispersion Energy (hartree)           -0.00470499
 
----------------------
Gradient Decomposition
----------------------
Total Gradients (hartree/bohr)
  Index   Atom            d/dx            d/dy            d/dz
      1      C   -0.0000001955    0.0000006684    0.0000000000
      2      C    0.0000039291    0.0000011748    0.0000000000
      3      C   -0.0000037065   -0.0000000746   -0.0000000000
      4      C    0.0000030123    0.0000006141    0.0000000000
      5      C   -0.0000030194   -0.0000011725   -0.0000000000
      6      C   -0.0000000453    0.0000003809    0.0000000000
      7      H   -0.0000005512   -0.0000004800   -0.0000000000
      8      H    0.0000006990    0.0000005286   -0.0000000000
      9      H    0.0000006492    0.0000004121   -0.0000000000
     10      H   -0.0000001350   -0.0000010769   -0.0000000000
     11      H   -0.0000002420   -0.0000005228    0.0000000000
     12      H   -0.0000009587   -0.0000012016    0.0000000000
     13      H    0.0000009980    0.0000012254   -0.0000000000
     14      H   -0.0000004339   -0.0000004759    0.0000000000
 
Total Gradients (eV/angstrom)
  Index   Atom            d/dx            d/dy            d/dz
      1      C   -0.0000100544    0.0000343716    0.0000000000
      2      C    0.0002020406    0.0000604083    0.0000000000
      3      C   -0.0001905946   -0.0000038337   -0.0000000000
      4      C    0.0001548997    0.0000315767    0.0000000000
      5      C   -0.0001552615   -0.0000602905   -0.0000000000
      6      C   -0.0000023308    0.0000195843    0.0000000000
      7      H   -0.0000283454   -0.0000246805   -0.0000000000
      8      H    0.0000359425    0.0000271829   -0.0000000000
      9      H    0.0000333812    0.0000211924   -0.0000000000
     10      H   -0.0000069418   -0.0000553765   -0.0000000000
     11      H   -0.0000124449   -0.0000268854    0.0000000000
     12      H   -0.0000492965   -0.0000617900    0.0000000000
     13      H    0.0000513202    0.0000630114   -0.0000000000
     14      H   -0.0000223143   -0.0000244711    0.0000000000
 
Electronic Gradients (hartree/bohr)
  Index   Atom            d/dx            d/dy            d/dz
      1      C   -0.0418887612    0.0696908509    0.0000000000
      2      C    0.0376080912   -0.0710383185    0.0000000000
      3      C   -0.0312505938    0.0614414877   -0.0000000000
      4      C    0.0312504626   -0.0614408219    0.0000000000
      5      C   -0.0376082902    0.0710377396   -0.0000000000
      6      C    0.0418891673   -0.0696899151    0.0000000000
      7      H   -0.0320503155   -0.0644521200   -0.0000000000
      8      H    0.0727366961   -0.0003980231   -0.0000000000
      9      H    0.0320503897    0.0644522188   -0.0000000000
     10      H   -0.0727365731    0.0003970267   -0.0000000000
     11      H   -0.0329685068   -0.0609973306    0.0000000000
     12      H    0.0332818390    0.0607627347    0.0000000000
     13      H   -0.0332818593   -0.0607626669   -0.0000000000
     14      H    0.0329682541    0.0609971377    0.0000000000
 
Coulomb Gradients (hartree/bohr)
  Index   Atom            d/dx            d/dy            d/dz
      1      C   -0.0000000277    0.0000144509    0.0000000000
      2      C   -0.0000186486   -0.0000698423    0.0000000000
      3      C    0.0000123596    0.0000390344    0.0000000000
      4      C   -0.0000123595   -0.0000390344    0.0000000000
      5      C    0.0000186488    0.0000698420    0.0000000000
      6      C    0.0000000273   -0.0000144511    0.0000000000
      7      H   -0.0000074873   -0.0000368700    0.0000000000
      8      H    0.0000343662   -0.0000068358    0.0000000000
      9      H    0.0000074878    0.0000368705    0.0000000000
     10      H   -0.0000343664    0.0000068355    0.0000000000
     11      H    0.0000156853    0.0000074262    0.0000000000
     12      H    0.0000053104   -0.0000104575    0.0000000000
     13      H   -0.0000053107    0.0000104575    0.0000000000
     14      H   -0.0000156853   -0.0000074261    0.0000000000
 
Repulsion Gradients (hartree/bohr)
  Index   Atom            d/dx            d/dy            d/dz
      1      C    0.0419515422   -0.0697527105    0.0000000000
      2      C   -0.0375202190    0.0710885291    0.0000000000
      3      C    0.0312590589   -0.0615129706    0.0000000000
      4      C   -0.0312596216    0.0615128440    0.0000000000
      5      C    0.0375213273   -0.0710879473    0.0000000000
      6      C   -0.0419521890    0.0697528242    0.0000000000
      7      H    0.0320295493    0.0645229680    0.0000000000
      8      H   -0.0728081843    0.0004239080    0.0000000000
      9      H   -0.0320295260   -0.0645231351    0.0000000000
     10      H    0.0728086256   -0.0004234595    0.0000000000
     11      H    0.0329934610    0.0609910186    0.0000000000
     12      H   -0.0332872193   -0.0607802645    0.0000000000
     13      H    0.0332872793    0.0607802204    0.0000000000
     14      H   -0.0329938842   -0.0609918247    0.0000000000
 
Dispersion Gradients (hartree/bohr)
  Index   Atom            d/dx            d/dy            d/dz
      1      C   -0.0000629488    0.0000480770    0.0000000000
      2      C   -0.0000652946    0.0000208065    0.0000000000
      3      C   -0.0000245311    0.0000323739    0.0000000000
      4      C    0.0000245308   -0.0000323736    0.0000000000
      5      C    0.0000652947   -0.0000208068    0.0000000000
      6      C    0.0000629490   -0.0000480772    0.0000000000
      7      H    0.0000277023   -0.0000344579    0.0000000000
      8      H    0.0000378210   -0.0000185205    0.0000000000
      9      H   -0.0000277022    0.0000344579    0.0000000000
     10      H   -0.0000378211    0.0000185205    0.0000000000
     11      H   -0.0000408815   -0.0000016371    0.0000000000
     12      H   -0.0000008887    0.0000267857    0.0000000000
     13      H    0.0000008887   -0.0000267856    0.0000000000
     14      H    0.0000408815    0.0000016372    0.0000000000
 
----------------
Mulliken Charges
----------------
  Index   Atom          Charge      Population
      1      C   -0.0734788628        4.073479
      2      C   -0.0177057615        4.017706
      3      C   -0.0311992837        4.031199
      4      C   -0.0311993843        4.031199
      5      C   -0.0177059255        4.017706
      6      C   -0.0734786080        4.073479
      7      H    0.0319779389        0.968022
      8      H    0.0328811406        0.967119
      9      H    0.0319781573        0.968022
     10      H    0.0328811672        0.967119
     11      H    0.0277824793        0.972218
     12      H    0.0297422411        0.970258
     13      H    0.0297421450        0.970258
     14      H    0.0277825565        0.972217
         Total    0.0000000000       32.000000
 
----------------------
Mulliken Shell Charges
----------------------
  Index   Atom      L          Charge      Population
      1      C      0    0.9504883544        1.049512
      2      C      1   -1.0239672172        3.023967
      3      C      0    0.9393801105        1.060620
      4      C      1   -0.9570858720        2.957086
      5      C      0    0.9345374551        1.065463
      6      C      1   -0.9657367388        2.965737
      7      C      0    0.9345372856        1.065463
      8      C      1   -0.9657366699        2.965737
      9      C      0    0.9393804411        1.060620
     10      C      1   -0.9570863666        2.957086
     11      C      0    0.9504883373        1.049512
     12      C      1   -1.0239669453        3.023967
     13      H      0    0.0387984979        0.961202
     14      H      0   -0.0068205591        0.006821
     15      H      0    0.0419549582        0.958045
     16      H      0   -0.0090738176        0.009074
     17      H      0    0.0387986485        0.961201
     18      H      0   -0.0068204912        0.006820
     19      H      0    0.0419550295        0.958045
     20      H      0   -0.0090738623        0.009074
     21      H      0    0.0347943396        0.965206
     22      H      0   -0.0070118603        0.007012
     23      H      0    0.0351955960        0.964804
     24      H      0   -0.0054533549        0.005453
     25      H      0    0.0351955427        0.964804
     26      H      0   -0.0054533977        0.005453
     27      H      0    0.0347944513        0.965206
     28      H      0   -0.0070118949        0.007012
                Total    0.0000000000       32.000000
 

AMS application finished. Exiting.
NORMAL TERMINATION
     Total cpu time:       1.08
  Total system time:       0.09
 Total elapsed time:       1.46
